 Entering Gaussian System, Link 0=g16
 Input=opt.com
 Output=opt.out
 Initial command:
 /usr/local/apps/gaussian/g16-c01-avx2//g16/l1.exe "/tmp/r2518.916985.maple/Gau-13281.inp" -scrdir="/tmp/r2518.916985.maple/"
 Entering Link 1 = /usr/local/apps/gaussian/g16-c01-avx2//g16/l1.exe PID=     13282.
  
 Copyright (c) 1988-2019, Gaussian, Inc.  All Rights Reserved.
  
 This is part of the Gaussian(R) 16 program.  It is based on
 the Gaussian(R) 09 system (copyright 2009, Gaussian, Inc.),
 the Gaussian(R) 03 system (copyright 2003, Gaussian, Inc.),
 the Gaussian(R) 98 system (copyright 1998, Gaussian, Inc.),
 the Gaussian(R) 94 system (copyright 1995, Gaussian, Inc.),
 the Gaussian 92(TM) system (copyright 1992, Gaussian, Inc.),
 the Gaussian 90(TM) system (copyright 1990, Gaussian, Inc.),
 the Gaussian 88(TM) system (copyright 1988, Gaussian, Inc.),
 the Gaussian 86(TM) system (copyright 1986, Carnegie Mellon
 University), and the Gaussian 82(TM) system (copyright 1983,
 Carnegie Mellon University). Gaussian is a federally registered
 trademark of Gaussian, Inc.
  
 This software contains proprietary and confidential information,
 including trade secrets, belonging to Gaussian, Inc.
  
 This software is provided under written license and may be
 used, copied, transmitted, or stored only in accord with that
 written license.
  
 The following legend is applicable only to US Government
 contracts under FAR:
  
                    RESTRICTED RIGHTS LEGEND
  
 Use, reproduction and disclosure by the US Government is
 subject to restrictions as set forth in subparagraphs (a)
 and (c) of the Commercial Computer Software - Restricted
 Rights clause in FAR 52.227-19.
  
 Gaussian, Inc.
 340 Quinnipiac St., Bldg. 40, Wallingford CT 06492
  
  
 ---------------------------------------------------------------
 Warning -- This program may not be used in any manner that
 competes with the business of Gaussian, Inc. or will provide
 assistance to any competitor of Gaussian, Inc.  The licensee
 of this program is prohibited from giving any competitor of
 Gaussian, Inc. access to this program.  By using this program,
 the user acknowledges that Gaussian, Inc. is engaged in the
 business of creating and licensing software in the field of
 computational chemistry and represents and warrants to the
 licensee that it is not a competitor of Gaussian, Inc. and that
 it will not use this program in any manner prohibited above.
 ---------------------------------------------------------------
  

 Cite this work as:
 Gaussian 16, Revision C.01,
 M. J. Frisch, G. W. Trucks, H. B. Schlegel, G. E. Scuseria, 
 M. A. Robb, J. R. Cheeseman, G. Scalmani, V. Barone, 
 G. A. Petersson, H. Nakatsuji, X. Li, M. Caricato, A. V. Marenich, 
 J. Bloino, B. G. Janesko, R. Gomperts, B. Mennucci, H. P. Hratchian, 
 J. V. Ortiz, A. F. Izmaylov, J. L. Sonnenberg, D. Williams-Young, 
 F. Ding, F. Lipparini, F. Egidi, J. Goings, B. Peng, A. Petrone, 
 T. Henderson, D. Ranasinghe, V. G. Zakrzewski, J. Gao, N. Rega, 
 G. Zheng, W. Liang, M. Hada, M. Ehara, K. Toyota, R. Fukuda, 
 J. Hasegawa, M. Ishida, T. Nakajima, Y. Honda, O. Kitao, H. Nakai, 
 T. Vreven, K. Throssell, J. A. Montgomery, Jr., J. E. Peralta, 
 F. Ogliaro, M. J. Bearpark, J. J. Heyd, E. N. Brothers, K. N. Kudin, 
 V. N. Staroverov, T. A. Keith, R. Kobayashi, J. Normand, 
 K. Raghavachari, A. P. Rendell, J. C. Burant, S. S. Iyengar, 
 J. Tomasi, M. Cossi, J. M. Millam, M. Klene, C. Adamo, R. Cammi, 
 J. W. Ochterski, R. L. Martin, K. Morokuma, O. Farkas, 
 J. B. Foresman, and D. J. Fox, Gaussian, Inc., Wallingford CT, 2019.
 
 ******************************************
 Gaussian 16:  ES64L-G16RevC.01  3-Jul-2019
                27-Jul-2021 
 ******************************************
 %mem=1600mb
 %nprocs=4
 Will use up to    4 processors via shared memory.
 -------------------
 #P PM6=(print,zero)
 -------------------
 1/38=1,172=1/1;
 2/12=2,17=6,18=5,40=1/2;
 3/5=2,25=1,41=3900000,136=201/1,2,3;
 4/35=1/1;
 5/5=2,35=1,38=5/2;
 6/7=2,8=2,9=2,10=2,28=1/1;
 99/5=1,9=1/99;
 Leave Link    1 at Tue Jul 27 18:53:17 2021, MaxMem=   209715200 cpu:               0.1 elap:               0.0
 (Enter /usr/local/apps/gaussian/g16-c01-avx2//g16/l101.exe)
 ---------
 the title
 ---------
 Symbolic Z-matrix:
 Charge =  0 Multiplicity = 1
 C                     0.        0.       0. 
 H                     0.        0.        1.08403 
 H                     1.02204   0.       -0.36134 
 H                    -0.51102  -0.88511  -0.36134 
 H                    -0.51102   0.88511  -0.36134 
 
 ITRead=  0  0  0  0  0
 MicOpt= -1 -1 -1 -1 -1
 NAtoms=      5 NQM=        5 NQMF=       0 NMMI=      0 NMMIF=      0
                NMic=       0 NMicF=      0.
                    Isotopes and Nuclear Properties:
 (Nuclear quadrupole moments (NQMom) in fm**2, nuclear magnetic moments (NMagM)
  in nuclear magnetons)

  Atom         1           2           3           4           5
 IAtWgt=          12           1           1           1           1
 AtmWgt=  12.0000000   1.0078250   1.0078250   1.0078250   1.0078250
 NucSpn=           0           1           1           1           1
 AtZEff=  -0.0000000  -0.0000000  -0.0000000  -0.0000000  -0.0000000
 NQMom=    0.0000000   0.0000000   0.0000000   0.0000000   0.0000000
 NMagM=    0.0000000   2.7928460   2.7928460   2.7928460   2.7928460
 AtZNuc=   6.0000000   1.0000000   1.0000000   1.0000000   1.0000000
 Leave Link  101 at Tue Jul 27 18:53:17 2021, MaxMem=   209715200 cpu:               0.3 elap:               0.1
 (Enter /usr/local/apps/gaussian/g16-c01-avx2//g16/l202.exe)
                          Input orientation:                          
 ---------------------------------------------------------------------
 Center     Atomic      Atomic             Coordinates (Angstroms)
 Number     Number       Type             X           Y           Z
 ---------------------------------------------------------------------
      1          6           0        0.000000    0.000000   -0.000000
      2          1           0        0.000000    0.000000    1.084034
      3          1           0        1.022037    0.000000   -0.361345
      4          1           0       -0.511018   -0.885110   -0.361345
      5          1           0       -0.511018    0.885110   -0.361345
 ---------------------------------------------------------------------
                    Distance matrix (angstroms):
                    1          2          3          4          5
     1  C    0.000000
     2  H    1.084034   0.000000
     3  H    1.084034   1.770220   0.000000
     4  H    1.084034   1.770220   1.770220   0.000000
     5  H    1.084034   1.770220   1.770220   1.770220   0.000000
 Stoichiometry    CH4
 Framework group  TD[O(C),4C3(H)]
 Deg. of freedom     1
 Full point group                 TD      NOp  24
 Largest Abelian subgroup         D2      NOp   4
 Largest concise Abelian subgroup D2      NOp   4
                         Standard orientation:                         
 ---------------------------------------------------------------------
 Center     Atomic      Atomic             Coordinates (Angstroms)
 Number     Number       Type             X           Y           Z
 ---------------------------------------------------------------------
      1          6           0        0.000000   -0.000000    0.000000
      2          1           0        0.625867    0.625867    0.625867
      3          1           0       -0.625867   -0.625867    0.625867
      4          1           0       -0.625867    0.625867   -0.625867
      5          1           0        0.625867   -0.625867   -0.625867
 ---------------------------------------------------------------------
 Rotational constants (GHZ):         160.0212868         160.0212868         160.0212868
 Leave Link  202 at Tue Jul 27 18:53:17 2021, MaxMem=   209715200 cpu:               0.1 elap:               0.0
 (Enter /usr/local/apps/gaussian/g16-c01-avx2//g16/l301.exe)

 Semi-emprical parameters in input format:
 Method=40 CoreType=2 PeptideFC=0.0000000000 RIJScale=0.0000000000 PM6R6=0.0000124488
 PM6R12=0.0000007621 ExpSw=0 CofSw=0.0000000000 R0Sw=0.0000000000 XabDefault=10.0000000000
 AabDefault=1.1536063198 PM7OH3=0.0000000000 PM7OH4=0.0000000000 PM6HCC=3674.9303600697
 ****
 H       
 PQN=1,0,0,0 NValence=1 F0ss=0.5309794405 F0sp=0.0000000000 F0pp=0.0000000000
 F0sd=0.0000000000 F0pd=0.0000000000 F0dd=0.0000000000 F2pp=0.0000000000 F2pd=0.0000000000
 F2dd=0.0000000000 F4dd=0.0000000000 G1sp=0.0000000000 G1pd=0.0000000000 G2sd=0.0000000000
 G3pd=0.0000000000 Rsppd=0.0000000000 Rsdpp=0.0000000000 Rsddd=0.0000000000
 ZetaOverlap=1.2686410000,0.0000000000,0.0000000000,0.0000000000
 Zeta1C=0.0000000000,0.0000000000,0.0000000000,0.0000000000
 U=-0.4133181015,0.0000000000,0.0000000000,0.0000000000
 Beta=-0.3069665138,0.0000000000,0.0000000000,0.0000000000 DDN=0,0,0.0000000000
 DDN=0,1,0.0000000000 DDN=1,1,0.0000000000 DDN=0,2,0.0000000000 DDN=1,2,0.0000000000
 DDN=2,2,0.0000000000 DDN=0,3,0.0000000000 DDN=1,3,0.0000000000 DDN=2,3,0.0000000000
 DDN=3,3,0.0000000000 CoreKO=0.9416560451 KON=0,0,0,0.9416560451 KON=1,0,0,0.0000000000
 KON=2,0,0,0.0000000000 KON=3,0,0,0.0000000000 KON=0,0,1,0.0000000000 KON=1,0,1,0.0000000000
 KON=2,0,1,0.0000000000 KON=3,0,1,0.0000000000 KON=0,1,1,0.0000000000 KON=1,1,1,0.0000000000
 KON=2,1,1,0.0000000000 KON=3,1,1,0.0000000000 KON=0,0,2,0.0000000000 KON=1,0,2,0.0000000000
 KON=2,0,2,0.0000000000 KON=3,0,2,0.0000000000 KON=0,1,2,0.0000000000 KON=1,1,2,0.0000000000
 KON=2,1,2,0.0000000000 KON=3,1,2,0.0000000000 KON=0,2,2,0.0000000000 KON=1,2,2,0.0000000000
 KON=2,2,2,0.0000000000 KON=3,2,2,0.0000000000 KON=0,0,3,0.0000000000 KON=1,0,3,0.0000000000
 KON=2,0,3,0.0000000000 KON=3,0,3,0.0000000000 KON=0,1,3,0.0000000000 KON=1,1,3,0.0000000000
 KON=2,1,3,0.0000000000 KON=3,1,3,0.0000000000 KON=0,2,3,0.0000000000 KON=1,2,3,0.0000000000
 KON=2,2,3,0.0000000000 KON=3,2,3,0.0000000000 KON=0,3,3,0.0000000000 KON=1,3,3,0.0000000000
 KON=2,3,3,0.0000000000 KON=3,3,3,0.0000000000 EISol=-0.4133181015 EHeat=0.0830298221
 Alpha=0.0000000000 DipHyp=0.0000000000
 GCore=0.0016794859,0.8557539975,3.3750716455 DCore=1,3,1.8737858116,2.2435870000,0.0000000000,0.0000000000,0.0000000000
 ****
 C       
 PQN=2,2,0,0 NValence=4 F0ss=0.4900713060 F0sp=0.4236511293 F0pp=0.3644399818
 F0sd=0.0000000000 F0pd=0.0000000000 F0dd=0.0000000000 F2pp=0.1978513158 F2pd=0.0000000000
 F2dd=0.0000000000 F4dd=0.0000000000 G1sp=0.0790832954 G1pd=0.0000000000 G2sd=0.0000000000
 G3pd=0.0000000000 Rsppd=0.0000000000 Rsdpp=0.0000000000 Rsddd=0.0000000000
 ZetaOverlap=2.0475580000,1.7028410000,0.0000000000,0.0000000000
 Zeta1C=0.0000000000,0.0000000000,0.0000000000,0.0000000000
 U=-1.8775102017,-1.4676915546,0.0000000000,0.0000000000
 Beta=-0.5653970197,-0.2745883383,0.0000000000,0.0000000000 DDN=0,0,0.0000000000
 DDN=0,1,0.7535642510 DDN=1,1,0.7192361890 DDN=0,2,0.0000000000 DDN=1,2,0.0000000000
 DDN=2,2,0.0000000000 DDN=0,3,0.0000000000 DDN=1,3,0.0000000000 DDN=2,3,0.0000000000
 DDN=3,3,0.0000000000 CoreKO=1.0202596926 KON=0,0,0,1.0202596926 KON=1,0,0,0.0000000000
 KON=2,0,0,0.0000000000 KON=3,0,0,0.0000000000 KON=0,0,1,0.0000000000 KON=1,0,1,1.2918442525
 KON=2,0,1,0.0000000000 KON=3,0,1,0.0000000000 KON=0,1,1,1.0202596926 KON=1,1,1,0.0000000000
 KON=2,1,1,0.7626764690 KON=3,1,1,0.0000000000 KON=0,0,2,0.0000000000 KON=1,0,2,0.0000000000
 KON=2,0,2,0.0000000000 KON=3,0,2,0.0000000000 KON=0,1,2,0.0000000000 KON=1,1,2,0.0000000000
 KON=2,1,2,0.0000000000 KON=3,1,2,0.0000000000 KON=0,2,2,0.0000000000 KON=1,2,2,0.0000000000
 KON=2,2,2,0.0000000000 KON=3,2,2,0.0000000000 KON=0,0,3,0.0000000000 KON=1,0,3,0.0000000000
 KON=2,0,3,0.0000000000 KON=3,0,3,0.0000000000 KON=0,1,3,0.0000000000 KON=1,1,3,0.0000000000
 KON=2,1,3,0.0000000000 KON=3,1,3,0.0000000000 KON=0,2,3,0.0000000000 KON=1,2,3,0.0000000000
 KON=2,2,3,0.0000000000 KON=3,2,3,0.0000000000 KON=0,3,3,0.0000000000 KON=1,3,3,0.0000000000
 KON=2,3,3,0.0000000000 KON=3,3,3,0.0000000000 EISol=-4.2335801674 EHeat=0.2723305496
 Alpha=0.0000000000 DipHyp=1.5070417157
 GCore=0.0032154960,0.5881175790,2.5208171714 DCore=1,4,0.2878149936,0.2165060000,0.0000000000,0.0000000000,0.0000000000
 DCore=2,3,1.6101301456,3.2139710000,0.0000000000,0.0000000000,0.0000000000
 DCore=3,3,1.7155258415,16.1800020000,0.0000000000,0.0000000000,0.0000000000
 DCore=4,3,2.2293611467,25.0358790000,0.0000000000,0.0000000000,0.0000000000
 DCore=5,3,1.5446719829,1.8748590000,0.0000000000,0.0000000000,0.0000000000
 DCore=6,5,1.3831173555,0.8135100000,3.1644797213,9.2800000000,0.0000000000
 ****
 
 Standard basis: VSTO-6G (5D, 7F)
 Ernie: Thresh=  0.10000D-02 Tol=  0.10000D-05 Strict=F.
  NNHCO=     0 NNPyr=     0 NCTC=     0               EPep=         0.000000000
    EC=         7.203742479  ECS=         0.742825223   EG=         0.030956719
   EHC=         0.000139409  EAt=        -5.886852573  AtH=         0.604449838
 EPDDG=         0.000000000  ECC=         7.977663830 EAtT=         6.491302411
 There are     2 symmetry adapted cartesian basis functions of A   symmetry.
 There are     2 symmetry adapted cartesian basis functions of B1  symmetry.
 There are     2 symmetry adapted cartesian basis functions of B2  symmetry.
 There are     2 symmetry adapted cartesian basis functions of B3  symmetry.
 There are     2 symmetry adapted basis functions of A   symmetry.
 There are     2 symmetry adapted basis functions of B1  symmetry.
 There are     2 symmetry adapted basis functions of B2  symmetry.
 There are     2 symmetry adapted basis functions of B3  symmetry.
     8 basis functions,    48 primitive gaussians,     8 cartesian basis functions
     4 alpha electrons        4 beta electrons
       nuclear repulsion energy        14.4689662410 Hartrees.
 IExCor=    0 DFT=F Ex=HF Corr=None ExCW=0 ScaHFX=  1.000000
 ScaDFX=  1.000000  1.000000  1.000000  1.000000 ScalE2=  1.000000  1.000000
 IRadAn=      5 IRanWt=     -1 IRanGd=            0 ICorTp=0 IEmpDi=  4
 Integral buffers will be    131072 words long.
 Regular integral format.
 Two-electron integral symmetry is turned off.
 Leave Link  301 at Tue Jul 27 18:53:17 2021, MaxMem=   209715200 cpu:               0.3 elap:               0.1
 (Enter /usr/local/apps/gaussian/g16-c01-avx2//g16/l302.exe)
 Do NDO integrals.
 NPDir=0 NMtPBC=     1 NCelOv=     1 NCel=       1 NClECP=     1 NCelD=      1
         NCelK=      1 NCelE2=     1 NClLst=     1 CellRange=     0.0.
 One-electron integrals computed using PRISM.
 NBasis=     8 RedAO= T EigKep=  1.00D+00  NBF=     2     2     2     2
 NBsUse=     8 1.00D-06 EigRej= -1.00D+00 NBFU=     2     2     2     2
 Leave Link  302 at Tue Jul 27 18:53:17 2021, MaxMem=   209715200 cpu:               0.3 elap:               0.1
 (Enter /usr/local/apps/gaussian/g16-c01-avx2//g16/l303.exe)
 DipDrv:  MaxL=1.
 Leave Link  303 at Tue Jul 27 18:53:17 2021, MaxMem=   209715200 cpu:               0.1 elap:               0.0
 (Enter /usr/local/apps/gaussian/g16-c01-avx2//g16/l401.exe)
 Simple Huckel Guess.
 JPrj=0 DoOrth=F DoCkMO=F.
 Initial guess orbital symmetries:
       Occupied  (A1) (T2) (T2) (T2)
       Virtual   (T2) (T2) (T2) (A1)
 The electronic state of the initial guess is 1-A1.
 Leave Link  401 at Tue Jul 27 18:53:17 2021, MaxMem=   209715200 cpu:               0.2 elap:               0.1
 (Enter /usr/local/apps/gaussian/g16-c01-avx2//g16/l502.exe)
 Keep J ints in memory in canonical form, NReq=859348.
 FoFCou: FMM=F IPFlag=           0 FMFlag=           0 FMFlg1=           0
         NFxFlg=           0 DoJE=F BraDBF=F KetDBF=F FulRan=T
         wScrn=  0.000000 ICntrl=       600 IOpCl=  2 I1Cent=           0 NGrid=           0
         NMat0=    1 NMatS0=     14 NMatT0=    0 NMatD0=    1 NMtDS0=    0 NMtDT0=    0
 Symmetry not used in FoFCou.
 Two-electron integral symmetry not used.
 Closed shell SCF:
 Using DIIS extrapolation, IDIIS=  1040.
 Overlap will be assumed to be unity.
 NGot=   209715200 LenX=   209654671 LenY=   209653789
 Requested convergence on RMS density matrix=1.00D-08 within 128 cycles.
 Requested convergence on MAX density matrix=1.00D-06.
 Requested convergence on             energy=1.00D-06.
 No special actions if energy rises.

 Cycle   1  Pass 1  IDiag  1:
 E= 0.704102618836799E-02
 DIIS: error= 2.19D-02 at cycle   1 NSaved=   1.
 NSaved= 1 IEnMin= 1 EnMin= 0.704102618836799E-02 IErMin= 1 ErrMin= 2.19D-02
 ErrMax= 2.19D-02  0.00D+00 EMaxC= 1.00D-01 BMatC= 9.16D-03 BMatP= 9.16D-03
 IDIUse=3 WtCom= 7.81D-01 WtEn= 2.19D-01
 Coeff-Com:  0.100D+01
 Coeff-En:   0.100D+01
 Coeff:      0.100D+01
 GapD=    2.000 DampG=2.000 DampE=0.500 DampFc=1.0000 IDamp=-1.
 RMSDP=1.61D-02 MaxDP=7.37D-02              OVMax= 0.00D+00

 Cycle   2  Pass 1  IDiag  1:
 E=-0.154785831818121E-01 Delta-E=       -0.022519609370 Rises=F Damp=F
 DIIS: error= 5.22D-03 at cycle   2 NSaved=   2.
 NSaved= 2 IEnMin= 2 EnMin=-0.154785831818121E-01 IErMin= 2 ErrMin= 5.22D-03
 ErrMax= 5.22D-03  0.00D+00 EMaxC= 1.00D-01 BMatC= 9.11D-04 BMatP= 9.16D-03
 IDIUse=3 WtCom= 9.48D-01 WtEn= 5.22D-02
 Coeff-Com: -0.372D+00 0.137D+01
 Coeff-En:   0.000D+00 0.100D+01
 Coeff:     -0.352D+00 0.135D+01
 RMSDP=8.33D-03 MaxDP=2.35D-02 DE=-2.25D-02 OVMax= 0.00D+00

 Cycle   3  Pass 1  IDiag  3:
 E=-0.189700287384547E-01 Delta-E=       -0.003491445557 Rises=F Damp=F
 DIIS: error= 1.37D-03 at cycle   3 NSaved=   3.
 NSaved= 3 IEnMin= 3 EnMin=-0.189700287384547E-01 IErMin= 3 ErrMin= 1.37D-03
 ErrMax= 1.37D-03  0.00D+00 EMaxC= 1.00D-01 BMatC= 9.08D-05 BMatP= 9.11D-04
 IDIUse=3 WtCom= 9.86D-01 WtEn= 1.37D-02
 Coeff-Com:  0.482D+00-0.191D+01 0.242D+01
 Coeff-En:   0.000D+00 0.000D+00 0.100D+01
 Coeff:      0.475D+00-0.188D+01 0.241D+01
 Fock symm off for IB=3 I1=    1 I=    5 J=    4 Cut=1.00D-07 Err=1.19D-02
 Fock matrix is not symmetric: symmetry in diagonalization turned off.
 Gap=     0.723 Goal=   None    Shift=    0.000
 RMSDP=5.69D-03 MaxDP=1.83D-02 DE=-3.49D-03 OVMax= 1.77D-02

 Cycle   4  Pass 1  IDiag  3:
 E=-0.195847894994472E-01 Delta-E=       -0.000614760761 Rises=F Damp=F
 DIIS: error= 5.36D-06 at cycle   4 NSaved=   4.
 NSaved= 4 IEnMin= 4 EnMin=-0.195847894994472E-01 IErMin= 4 ErrMin= 5.36D-06
 ErrMax= 5.36D-06  0.00D+00 EMaxC= 1.00D-01 BMatC= 1.61D-09 BMatP= 9.08D-05
 IDIUse=1 WtCom= 1.00D+00 WtEn= 0.00D+00
 Coeff-Com:  0.482D+00-0.191D+01 0.242D+01-0.309D-05
 Coeff:      0.482D+00-0.191D+01 0.242D+01-0.309D-05
 Gap=     0.724 Goal=   None    Shift=    0.000
 RMSDP=4.40D-05 MaxDP=1.41D-04 DE=-6.15D-04 OVMax= 1.37D-04

 Cycle   5  Pass 1  IDiag  3:
 E=-0.195847876762869E-01 Delta-E=        0.000000001823 Rises=F Damp=F
 DIIS: error= 5.67D-06 at cycle   5 NSaved=   5.
 NSaved= 5 IEnMin= 4 EnMin=-0.195847894994472E-01 IErMin= 4 ErrMin= 5.36D-06
 ErrMax= 5.67D-06  0.00D+00 EMaxC= 1.00D-01 BMatC= 1.78D-09 BMatP= 1.61D-09
 IDIUse=1 WtCom= 1.00D+00 WtEn= 0.00D+00
 Large coefficients: NSaved=  5 BigCof=    0.00 CofMax=   10.00 Det= 1.38D-19
 Inversion failed.  Reducing to  4 matrices.
 Coeff-Com:  0.831D-03 0.222D-02 0.961D-06 0.997D+00
 Coeff:      0.831D-03 0.222D-02 0.961D-06 0.997D+00
 Gap=     0.724 Goal=   None    Shift=    0.000
 RMSDP=2.36D-05 MaxDP=7.51D-05 DE= 1.82D-09 OVMax= 7.29D-05

 Cycle   6  Pass 1  IDiag  3:
 E=-0.195847985170481E-01 Delta-E=       -0.000000010841 Rises=F Damp=F
 DIIS: error= 1.21D-08 at cycle   6 NSaved=   5.
 NSaved= 5 IEnMin= 5 EnMin=-0.195847985170481E-01 IErMin= 5 ErrMin= 1.21D-08
 ErrMax= 1.21D-08  0.00D+00 EMaxC= 1.00D-01 BMatC= 8.48D-15 BMatP= 1.61D-09
 IDIUse=1 WtCom= 1.00D+00 WtEn= 0.00D+00
 Large coefficients: NSaved=  5 BigCof=    0.00 CofMax=   10.00 Det= 2.43D-25
 Inversion failed.  Reducing to  4 matrices.
 Coeff-Com: -0.151D-04 0.696D-07-0.151D-02 0.100D+01
 Coeff:     -0.151D-04 0.696D-07-0.151D-02 0.100D+01
 Gap=     0.724 Goal=   None    Shift=    0.000
 RMSDP=5.15D-08 MaxDP=1.63D-07 DE=-1.08D-08 OVMax= 1.58D-07

 Cycle   7  Pass 1  IDiag  3:
 E=-0.195847985170996E-01 Delta-E=       -0.000000000000 Rises=F Damp=F
 DIIS: error= 3.31D-11 at cycle   7 NSaved=   5.
 NSaved= 5 IEnMin= 5 EnMin=-0.195847985170996E-01 IErMin= 5 ErrMin= 3.31D-11
 ErrMax= 3.31D-11  0.00D+00 EMaxC= 1.00D-01 BMatC= 5.72D-20 BMatP= 8.48D-15
 IDIUse=1 WtCom= 1.00D+00 WtEn= 0.00D+00
 Large coefficients: NSaved=  5 BigCof=    0.00 CofMax=   10.00 Det=-3.05D-29
 Inversion failed.  Reducing to  4 matrices.
 Coeff-Com:  0.505D-09-0.111D-05 0.221D-02 0.998D+00
 Coeff:      0.505D-09-0.111D-05 0.221D-02 0.998D+00
 Gap=     0.724 Goal=   None    Shift=    0.000
 RMSDP=1.39D-10 MaxDP=4.43D-10 DE=-5.15D-14 OVMax= 4.30D-10

 Cycle   8  Pass 2  IDiag  1:
 SCF Done:  E(RPM6) = -0.195847985171E-01 A.U. after    8 cycles
            NFock=  7  Conv=0.14D-09     -V/T= 0.9981
 KE=-1.035556118766D+01 PE=-1.375162154220D+01 EE= 9.618631690357D+00
 Leave Link  502 at Tue Jul 27 18:53:17 2021, MaxMem=   209715200 cpu:               0.1 elap:               0.1
 (Enter /usr/local/apps/gaussian/g16-c01-avx2//g16/l601.exe)
 Copying SCF densities to generalized density rwf, IOpCl= 0 IROHF=0.

 **********************************************************************

            Population analysis using the SCF Density.

 **********************************************************************

 Orbital symmetries:
       Occupied  (A1) (T2) (T2) (T2)
       Virtual   (T2) (T2) (T2) (A1)
 The electronic state is 1-A1.
 Alpha  occ. eigenvalues --   -0.92685  -0.50270  -0.50270  -0.50270
 Alpha virt. eigenvalues --    0.22118   0.22118   0.22118   0.26676
          Condensed to atoms (all electrons):
               1          2          3          4          5
     1  C    4.655168   0.000000   0.000000   0.000000   0.000000
     2  H    0.000000   0.836208   0.000000   0.000000   0.000000
     3  H    0.000000   0.000000   0.836208   0.000000   0.000000
     4  H    0.000000   0.000000   0.000000   0.836208   0.000000
     5  H    0.000000   0.000000   0.000000   0.000000   0.836208
 Mulliken charges:
               1
     1  C   -0.655168
     2  H    0.163792
     3  H    0.163792
     4  H    0.163792
     5  H    0.163792
 Sum of Mulliken charges =   0.00000
 Mulliken charges with hydrogens summed into heavy atoms:
               1
     1  C    0.000000
 Charge=              0.0000 electrons
 Dipole moment (field-independent basis, Debye):
    X=              0.0000    Y=              0.0000    Z=             -0.0000  Tot=              0.0000
 N-N= 1.446896624099D+01 E-N=-1.375162154170D+01  KE=-1.035556118766D+01
 Symmetry A    KE=-3.284715515926D+00
 Symmetry B1   KE=-2.356948557246D+00
 Symmetry B2   KE=-2.356948557246D+00
 Symmetry B3   KE=-2.356948557246D+00
 Leave Link  601 at Tue Jul 27 18:53:17 2021, MaxMem=   209715200 cpu:               0.1 elap:               0.0
 (Enter /usr/local/apps/gaussian/g16-c01-avx2//g16/l9999.exe)
 Unable to Open any file for archive entry.
 1\1\GINC-CN107\SP\RPM6\ZDO\C1H4\R2518\27-Jul-2021\0\\#P PM6=(print,zer
 o)\\the title\\0,1\C,0,0.,0.,-0.0000000318\H,0,0.,0.,1.0840336982\H,0,
 1.0220367932,0.,-0.3613445025\H,0,-0.5110183966,-0.8851098265,-0.36134
 45025\H,0,-0.5110183966,0.8851098265,-0.3613445025\\Version=ES64L-G16R
 evC.01\State=1-A1\HF=-0.0195848\RMSD=1.391e-10\Dipole=0.,0.,0.\PG=TD [
 O(C1),4C3(H1)]\\@
 The archive entry for this job was punched.


 "ANNA, YOU MUSN'T SPEAK OF OXIDIZED MURIATIC ACID
 ANYMORE, FROM NOW ON YOU MUST SAY CHLORINE."
   -- JENS JACOB BERZELIUS, IN 1820, TO HIS COOK, WHO HAD
 COMPLAINED OF THE SMELL OF THE FLASK SHE WAS CLEANING.
 Job cpu time:       0 days  0 hours  0 minutes  1.8 seconds.
 Elapsed time:       0 days  0 hours  0 minutes  0.6 seconds.
 File lengths (MBytes):  RWF=      6 Int=      0 D2E=      0 Chk=      2 Scr=      1
 Normal termination of Gaussian 16 at Tue Jul 27 18:53:17 2021.
