 *******************************************************************************
 ** Cite this program as: MOPAC2016, Version: 22.047L, James J. P. Stewart,   **
 **                           web-site: HTTP://OpenMOPAC.net.                 **
 *******************************************************************************
 **                                                                           **
 **                                MOPAC2016                                  **
 **                                                                           **
 *******************************************************************************

                              PM6 CALCULATION RESULTS

 *******************************************************************************
 *  CALCULATION DONE:                                Fri Feb 25 13:43:36 2022  *
 *  PM6        - The PM6 Hamiltonian to be used
 *
 *  EXTERNAL=n  -  DEFAULT PARAMETERS RESET USING DATA IN FILES: 
 *                 "/home/brent/programs/pbqff/tests/sic/mopac/100/params.dat"
 *  T=         - A TIME OF 172800.0 SECONDS REQUESTED
 *  DUMP=N     - RESTART FILE WRITTEN EVERY 7200.0 SECONDS REQUESTED
 *  SCFCRT     - DEFAULT SCF CRITERION REPLACED BY   0.100E-20
 *  AUX        - OUTPUT AUXILIARY INFORMATION
 *  HCORE      - PRINT DETAILS OF SUBROUTINE HCORE 
 *******************************************************************************



                    PARAMETER DEPENDENCE DATA

        REFERENCE ATOM      FUNCTION NO.    DEPENDENT ATOM(S)
            2                  1               3
            4                  1               5
            4                  2               5

             DESCRIPTIONS OF THE FUNCTIONS USED
 
scfcrt=1.D-21 aux(precision=14) PM6 external=/home/brent/programs/pbqff/tests/sic/mopac/100/params.dat hcore SYMMETRY
 Comment line 1
 Comment line 2
  ATOM    CHEMICAL      BOND LENGTH      BOND ANGLE     TWIST ANGLE 
 NUMBER    SYMBOL       (ANGSTROMS)      (DEGREES)       (DEGREES) 
   (I)                     NA:I           NB:NA:I       NC:NB:NA:I       NA    NB    NC 
     1       C          0.00000000       0.0000000       0.0000000        0     0     0
     2       C          1.42101898  *    0.0000000       0.0000000        1     0     0
     3       C          1.42101898      55.6013314  *    0.0000000        1     2     0
     4       H          1.07692776  *  147.8148823  *  180.0000000        2     1     3
     5       H          1.07692776     147.8148823     180.0000000        3     1     2
 


          CARTESIAN COORDINATES 

    NO.       ATOM           X           Y           Z

     1         C          0.0000      0.0000      0.0000
     2         C          1.4210      0.0000      0.0000
     3         C          0.8028      1.1725      0.0000
     4         H          2.3325     -0.5736      0.0000
     5         H          0.8444      2.2486     -0.0000
 EXTERNAL parameter type: '****' unrecognized

 General Reference for PM6:
 "Optimization of Parameters for Semiempirical Methods V: Modification of NDDO Approximations
 and Application to 70 Elements", J. J. P. Stewart, J. Mol. Mod., 13, 1173-1213 (2007)
 URL: https://link.springer.com/article/10.1007/s00894-007-0233-4

           Empirical Formula: C3 H2  =     5 atoms



      MOLECULAR POINT GROUP   :   C2v 


      RHF CALCULATION, NO. OF DOUBLY OCCUPIED LEVELS = 7


          Geometry optimization using EF
 
 PARAMETER VALUES USED IN THE CALCULATION
 
  NI    TYPE        VALUE     UNIT
 
 
   1  USS     -11.24695800  EV        ONE-CENTER ENERGY FOR S
   1  ZS        1.26864100  AU        ORBITAL EXPONENT  FOR S
   1  BETAS    -8.35298400  EV        BETA PARAMETER    FOR S
   1  GSS      14.44868600  EV        ONE-CENTER INTEGRAL (SS,SS)
   1  PO1       0.94165599  BOHR      KLOPMAN-OHNO TERM, SS, L=0
   1  PO7       0.94165599  BOHR      KLOPMAN-OHNO TERM, PP, L=0
   1  PO9       0.94165599  BOHR      KLOPMAN-OHNO TERM, CORE
   1  CORE      1.00000000  E         CORE CHARGE
   1  EHEAT    52.10200000  KCAL/MOL  HEAT OF FORMATION OF THE ATOM (EXP)
   1  EISOL   -11.24695800  EV        TOTAL ENERGY OF THE ATOM (CALC)
   1  FN11      0.02418400  CORE-CORE VDW MULTIPLIER 1
   1  FN21      3.05595300  CORE-CORE VDW EXPONENT 1
   1  FN31      1.78601100  CORE-CORE VDW POSITION 1
   1 ALPB_ 1   3.54094200  ALPB factor
   1 XFAC_ 1   2.24358700  XFAC factor
   1 ALPB_ 6   1.02780600  ALPB factor
   1 XFAC_ 6   0.21650600  XFAC factor
 
   6  USS     -51.08965300  EV        ONE-CENTER ENERGY FOR S
   6  UPP     -39.93792000  EV        ONE-CENTER ENERGY FOR P
   6  ZS        2.04755800  AU        ORBITAL EXPONENT  FOR S
   6  ZP        1.70284100  AU        ORBITAL EXPONENT  FOR P
   6  BETAS   -15.38523600  EV        BETA PARAMETER    FOR S
   6  BETAP    -7.47192900  EV        BETA PARAMETER    FOR P
   6  GSS      13.33551900  EV        ONE-CENTER INTEGRAL (SS,SS)
   6  GPP      10.77832600  EV        ONE-CENTER INTEGRAL (PP,PP)
   6  GSP      11.52813400  EV        ONE-CENTER INTEGRAL (SS,PP)
   6  GP2       9.48621200  EV        ONE-CENTER INTEGRAL (PP*,PP*)
   6  HSP       0.71732200  EV        ONE-CENTER INTEGRAL (SP,SP)
   6  DD2       0.75356425  BOHR      CHARGE SEPARATION, SP, L=1
   6  DD3       1.01715357  BOHR      CHARGE SEPARATION, PP, L=2
   6   =        0.71923619  BOHR      USING ORIGINAL MNDO PAPER FORMULA
   6  PO1       1.02025963  BOHR      KLOPMAN-OHNO TERM, SS, L=0
   6  PO2       1.29184422  BOHR      KLOPMAN-OHNO TERM, SP, L=1
   6  PO3       0.76267645  BOHR      KLOPMAN-OHNO TERM, PP, L=2
   6  PO7       1.02025963  BOHR      KLOPMAN-OHNO TERM, PP, L=0
   6  PO9       1.02025963  BOHR      KLOPMAN-OHNO TERM, CORE
   6  CORE      4.00000000  E         CORE CHARGE
   6  EHEAT   170.89000000  KCAL/MOL  HEAT OF FORMATION OF THE ATOM (EXP)
   6  EISOL  -115.20158000  EV        TOTAL ENERGY OF THE ATOM (CALC)
   6  FN11      0.04630200  CORE-CORE VDW MULTIPLIER 1
   6  FN21      2.10020600  CORE-CORE VDW EXPONENT 1
   6  FN31      1.33395900  CORE-CORE VDW POSITION 1
   6 ALPB_ 1   1.02780600  ALPB factor
   6 XFAC_ 1   0.21650600  XFAC factor
   6 ALPB_ 6   2.61371300  ALPB factor
   6 XFAC_ 6   0.81351000  XFAC factor


          ONE-ELECTRON MATRIX FROM HCORE


               S  C  1   PX  C  1   PY  C  1   PZ  C  1    S  C  2   PX  C  2
 ------------------------------------------------------------------------------
  S  C    1-126.641533
 PX  C    1  -8.676863-116.824853
 PY  C    1  -4.574920  -1.498090-114.773428
 PZ  C    1   0.000000  -0.000000   0.000000-112.326672
  S  C    2  -3.697771  -4.145128   0.000000   0.000000-132.341390
 PX  C    2   4.145128   2.480827   0.000000   0.000000   6.268766-121.937437
 PY  C    2   0.000000   0.000000  -1.567689   0.000000  -4.501121   1.927895
 PZ  C    2   0.000000   0.000000   0.000000  -1.567689  -0.000000  -0.000000
  S  C    3  -3.697771  -2.341781  -3.420256   0.000000  -4.391420   2.162471
 PX  C    3   2.341781  -0.275540   1.887230   0.000000  -2.162471  -0.918192
 PY  C    3   3.420256   1.887230   1.188678   0.000000   4.101376  -1.785098
 PZ  C    3   0.000000   0.000000   0.000000  -1.567689   0.000000   0.000000
  S  H    4  -0.494094  -0.622662   0.153134  -0.000000  -5.129490  -3.193397
  S  H    5  -0.494094  -0.225416  -0.600288   0.000000  -0.580816   0.182782


              PY  C  2   PZ  C  2    S  C  3   PX  C  3   PY  C  3   PZ  C  3
 ------------------------------------------------------------------------------
 PY  C    2-120.555388
 PZ  C    2   0.000000-117.310669
  S  C    3  -4.101376   0.000000-132.341390
 PX  C    3  -1.785098   0.000000  -0.172469-119.199102
 PY  C    3   1.526250   0.000000   7.715424   0.053011-123.293724
 PZ  C    3   0.000000  -1.859394   0.000000  -0.000000   0.000000-117.310669
  S  H    4   2.009831  -0.000000  -0.580816  -0.484883   0.553510  -0.000000
  S  H    5  -0.712794   0.000000  -5.129490  -0.145737  -3.770407   0.000000


               S  H  4    S  H  5
 ------------------------------
  S  H    4 -98.721594
  S  H    5  -0.112056 -98.721594


          TWO-ELECTRON MATRIX IN HCORE

 13.3355  0.0000 11.5281  0.0000  0.0000 11.5281  0.0000  0.0000  0.0000 11.5281
  0.0000  0.7173  0.0000  0.0000  0.0000  0.0000  0.0000  0.0000  0.0000  0.0000
 11.5281  0.0000 10.7783  0.0000  0.0000  9.4862  0.0000  0.0000  0.0000  9.4862
  0.0000  0.0000  0.0000  0.7173  0.0000  0.0000  0.0000  0.0000  0.0000  0.0000
  0.0000  0.0000  0.0000  0.0000  0.6461  0.0000  0.0000  0.0000  0.0000  0.0000
 11.5281  0.0000  9.4862  0.0000  0.0000 10.7783  0.0000  0.0000  0.0000  9.4862
  0.0000  0.0000  0.0000  0.0000  0.0000  0.0000  0.7173  0.0000  0.0000  0.0000
  0.0000  0.0000  0.0000  0.0000  0.0000  0.0000  0.0000  0.6461  0.0000  0.0000
  0.0000  0.0000  0.0000  0.0000  0.0000  0.0000  0.0000  0.0000  0.6461  0.0000
 11.5281  0.0000  9.4862  0.0000  0.0000  9.4862  0.0000  0.0000  0.0000 10.7783
  8.0683  1.2325  8.4882  0.0000  0.0000  7.7018  0.0000  0.0000  0.0000  7.7018
 -1.2325 -0.1259 -1.1611  0.0000  0.0000 -1.0690  0.0000  0.0000  0.0000 -1.0690
  8.4882  1.1611  8.6133  0.0000  0.0000  7.9573  0.0000  0.0000  0.0000  7.9573
  0.0000  0.0000  0.0000  0.2663  0.1614  0.0000  0.0000  0.0000  0.0000  0.0000
  0.0000  0.0000  0.0000 -0.1614 -0.1645  0.0000  0.0000  0.0000  0.0000  0.0000
  7.7018  1.0690  7.9573  0.0000  0.0000  7.4519  0.0000  0.0000  0.0000  7.3842
  0.0000  0.0000  0.0000  0.0000  0.0000  0.0000  0.2663  0.1614  0.0000  0.0000
  0.0000  0.0000  0.0000  0.0000  0.0000  0.0000 -0.1614 -0.1645  0.0000  0.0000
  0.0000  0.0000  0.0000  0.0000  0.0000  0.0000  0.0000  0.0000  0.0339  0.0000
  7.7018  1.0690  7.9573  0.0000  0.0000  7.3842  0.0000  0.0000  0.0000  7.4519
 13.3355  0.0000 11.5281  0.0000  0.0000 11.5281  0.0000  0.0000  0.0000 11.5281
  0.0000  0.7173  0.0000  0.0000  0.0000  0.0000  0.0000  0.0000  0.0000  0.0000
 11.5281  0.0000 10.7783  0.0000  0.0000  9.4862  0.0000  0.0000  0.0000  9.4862
  0.0000  0.0000  0.0000  0.7173  0.0000  0.0000  0.0000  0.0000  0.0000  0.0000
  0.0000  0.0000  0.0000  0.0000  0.6461  0.0000  0.0000  0.0000  0.0000  0.0000
 11.5281  0.0000  9.4862  0.0000  0.0000 10.7783  0.0000  0.0000  0.0000  9.4862
  0.0000  0.0000  0.0000  0.0000  0.0000  0.0000  0.7173  0.0000  0.0000  0.0000
  0.0000  0.0000  0.0000  0.0000  0.0000  0.0000  0.0000  0.6461  0.0000  0.0000
  0.0000  0.0000  0.0000  0.0000  0.0000  0.0000  0.0000  0.0000  0.6461  0.0000
 11.5281  0.0000  9.4862  0.0000  0.0000  9.4862  0.0000  0.0000  0.0000 10.7783
  8.0683  0.6963  7.9528  1.0170  0.3666  8.2372  0.0000  0.0000  0.0000  7.7018
 -0.6963  0.1411 -0.4964 -0.1829  0.0239 -0.7635  0.0000  0.0000  0.0000 -0.6039
  7.9528  0.4964  7.6469  0.9913  0.2025  8.1330  0.0000  0.0000  0.0000  7.5671
 -1.0170 -0.1829 -0.9913 -0.0007 -0.0684 -0.8488  0.0000  0.0000  0.0000 -0.8821
  0.3666 -0.0239  0.2025  0.0684  0.0112  0.3388  0.0000  0.0000  0.0000  0.2672
  8.2372  0.7635  8.1330  0.8488  0.3388  8.0669  0.0000  0.0000  0.0000  7.7744
  0.0000  0.0000  0.0000  0.0000  0.0000  0.0000  0.2663  0.0912  0.1332  0.0000
  0.0000  0.0000  0.0000  0.0000  0.0000  0.0000 -0.0912 -0.0294 -0.0925  0.0000
  0.0000  0.0000  0.0000  0.0000  0.0000  0.0000 -0.1332 -0.0925 -0.1012  0.0000
  7.7018  0.6039  7.5671  0.8821  0.2672  7.7744  0.0000  0.0000  0.0000  7.4519
  8.4225 -0.5995  8.1878  1.1371 -0.3458  8.6614  0.0000  0.0000  0.0000  8.0055
  0.5995  0.2077  0.3869  0.1627  0.0792  0.6686  0.0000  0.0000  0.0000  0.5135
  8.1878 -0.3869  7.8301  1.0558 -0.1332  8.3873  0.0000  0.0000  0.0000  7.7774
 -1.1371  0.1627 -1.0558 -0.0152  0.0702 -0.9461  0.0000  0.0000  0.0000 -0.9740
 -0.3458 -0.0792 -0.1332 -0.0702 -0.0395 -0.3358  0.0000  0.0000  0.0000 -0.2436
  8.6614 -0.6686  8.3873  0.9461 -0.3358  8.4723  0.0000  0.0000  0.0000  8.1109
  0.0000  0.0000  0.0000  0.0000  0.0000  0.0000  0.2935 -0.0849  0.1610  0.0000
  0.0000  0.0000  0.0000  0.0000  0.0000  0.0000  0.0849 -0.0088  0.0942  0.0000
  0.0000  0.0000  0.0000  0.0000  0.0000  0.0000 -0.1610  0.0942 -0.1377  0.0000
  8.0055 -0.5135  7.7774  0.9740 -0.2436  8.1109  0.0000  0.0000  0.0000  7.7307
 13.3355  0.0000 11.5281  0.0000  0.0000 11.5281  0.0000  0.0000  0.0000 11.5281
  0.0000  0.7173  0.0000  0.0000  0.0000  0.0000  0.0000  0.0000  0.0000  0.0000
 11.5281  0.0000 10.7783  0.0000  0.0000  9.4862  0.0000  0.0000  0.0000  9.4862
  0.0000  0.0000  0.0000  0.7173  0.0000  0.0000  0.0000  0.0000  0.0000  0.0000
  0.0000  0.0000  0.0000  0.0000  0.6461  0.0000  0.0000  0.0000  0.0000  0.0000
 11.5281  0.0000  9.4862  0.0000  0.0000 10.7783  0.0000  0.0000  0.0000  9.4862
  0.0000  0.0000  0.0000  0.0000  0.0000  0.0000  0.7173  0.0000  0.0000  0.0000
  0.0000  0.0000  0.0000  0.0000  0.0000  0.0000  0.0000  0.6461  0.0000  0.0000
  0.0000  0.0000  0.0000  0.0000  0.0000  0.0000  0.0000  0.0000  0.6461  0.0000
 11.5281  0.0000  9.4862  0.0000  0.0000  9.4862  0.0000  0.0000  0.0000 10.7783
  5.5029  0.7061  5.6953 -0.1736 -0.0758  5.4057  0.0000  0.0000 -0.0000  5.3870
  9.6263  1.2488  9.7371 -0.7860 -0.4594  9.2963  0.0000  0.0000 -0.0000  9.0071
  5.6625  0.5025  5.6898 -0.5736 -0.1753  5.7364  0.0000  0.0000 -0.0000  5.5362
 14.4487  5.5029  0.2556  5.4274  0.6807  0.1076  5.6735 -0.0000 -0.0000 -0.0000
  5.3870  5.6625 -0.1894  5.5581  0.7387 -0.0851  5.8681 -0.0000  0.0000 -0.0000
  5.5362  9.6263  0.0570  9.0086  1.4745  0.0393 10.0248 -0.0000 -0.0000 -0.0000
  9.0071  4.3080 14.4487
  SCF CRITERION =    0.1000E-20


   THERE IS A RISK OF INFINITE LOOPING WITH THE SCFCRT LESS THAN 1.D-12

          DIAGONAL MATRIX USED AS START HESSIAN

 CYCLE:     1 TIME:   0.008 TIME LEFT:  2.00D  GRAD.:    84.088 HEAT:  127.8518
 
 PARAMETER VALUES USED IN THE CALCULATION
 
  NI    TYPE        VALUE     UNIT
 
 
   1  USS     -11.24695800  EV        ONE-CENTER ENERGY FOR S
   1  ZS        1.26864100  AU        ORBITAL EXPONENT  FOR S
   1  BETAS    -8.35298400  EV        BETA PARAMETER    FOR S
   1  GSS      14.44868600  EV        ONE-CENTER INTEGRAL (SS,SS)
   1  PO1       0.94165599  BOHR      KLOPMAN-OHNO TERM, SS, L=0
   1  PO7       0.94165599  BOHR      KLOPMAN-OHNO TERM, PP, L=0
   1  PO9       0.94165599  BOHR      KLOPMAN-OHNO TERM, CORE
   1  CORE      1.00000000  E         CORE CHARGE
   1  EHEAT    52.10200000  KCAL/MOL  HEAT OF FORMATION OF THE ATOM (EXP)
   1  EISOL   -11.24695800  EV        TOTAL ENERGY OF THE ATOM (CALC)
   1  FN11      0.02418400  CORE-CORE VDW MULTIPLIER 1
   1  FN21      3.05595300  CORE-CORE VDW EXPONENT 1
   1  FN31      1.78601100  CORE-CORE VDW POSITION 1
   1 ALPB_ 1   3.54094200  ALPB factor
   1 XFAC_ 1   2.24358700  XFAC factor
   1 ALPB_ 6   1.02780600  ALPB factor
   1 XFAC_ 6   0.21650600  XFAC factor
 
   6  USS     -51.08965300  EV        ONE-CENTER ENERGY FOR S
   6  UPP     -39.93792000  EV        ONE-CENTER ENERGY FOR P
   6  ZS        2.04755800  AU        ORBITAL EXPONENT  FOR S
   6  ZP        1.70284100  AU        ORBITAL EXPONENT  FOR P
   6  BETAS   -15.38523600  EV        BETA PARAMETER    FOR S
   6  BETAP    -7.47192900  EV        BETA PARAMETER    FOR P
   6  GSS      13.33551900  EV        ONE-CENTER INTEGRAL (SS,SS)
   6  GPP      10.77832600  EV        ONE-CENTER INTEGRAL (PP,PP)
   6  GSP      11.52813400  EV        ONE-CENTER INTEGRAL (SS,PP)
   6  GP2       9.48621200  EV        ONE-CENTER INTEGRAL (PP*,PP*)
   6  HSP       0.71732200  EV        ONE-CENTER INTEGRAL (SP,SP)
   6  DD2       0.75356425  BOHR      CHARGE SEPARATION, SP, L=1
   6  DD3       1.01715357  BOHR      CHARGE SEPARATION, PP, L=2
   6   =        0.71923619  BOHR      USING ORIGINAL MNDO PAPER FORMULA
   6  PO1       1.02025963  BOHR      KLOPMAN-OHNO TERM, SS, L=0
   6  PO2       1.29184422  BOHR      KLOPMAN-OHNO TERM, SP, L=1
   6  PO3       0.76267645  BOHR      KLOPMAN-OHNO TERM, PP, L=2
   6  PO7       1.02025963  BOHR      KLOPMAN-OHNO TERM, PP, L=0
   6  PO9       1.02025963  BOHR      KLOPMAN-OHNO TERM, CORE
   6  CORE      4.00000000  E         CORE CHARGE
   6  EHEAT   170.89000000  KCAL/MOL  HEAT OF FORMATION OF THE ATOM (EXP)
   6  EISOL  -115.20158000  EV        TOTAL ENERGY OF THE ATOM (CALC)
   6  FN11      0.04630200  CORE-CORE VDW MULTIPLIER 1
   6  FN21      2.10020600  CORE-CORE VDW EXPONENT 1
   6  FN31      1.33395900  CORE-CORE VDW POSITION 1
   6 ALPB_ 1   1.02780600  ALPB factor
   6 XFAC_ 1   0.21650600  XFAC factor
   6 ALPB_ 6   2.61371300  ALPB factor
   6 XFAC_ 6   0.81351000  XFAC factor


          ONE-ELECTRON MATRIX FROM HCORE


               S  C  1   PX  C  1   PY  C  1   PZ  C  1    S  C  2   PX  C  2
 ------------------------------------------------------------------------------
  S  C    1-124.584664
 PX  C    1  -8.005396-114.560783
 PY  C    1  -4.682218  -1.294493-113.104658
 PZ  C    1   0.000000  -0.000000   0.000000-110.530084
  S  C    2  -3.263553  -3.806865   0.000000   0.000000-128.657470
 PX  C    2   3.806865   2.445914   0.000000   0.000000   6.122616-118.621435
 PY  C    2   0.000000   0.000000  -1.386831   0.000000  -3.979432   1.834164
 PZ  C    2   0.000000   0.000000   0.000000  -1.386831  -0.000000  -0.000000
  S  C    3  -3.263553  -1.866184  -3.318068   0.000000  -3.174611   1.885441
 PX  C    3   1.866184  -0.465780   1.637626   0.000000  -1.885441  -0.385350
 PY  C    3   3.318068   1.637626   1.524863   0.000000   3.223622  -1.649177
 PZ  C    3   0.000000   0.000000   0.000000  -1.386831   0.000000   0.000000
  S  H    4  -0.449831  -0.576767   0.132073  -0.000000  -5.309391  -3.280762
  S  H    5  -0.449831  -0.167625  -0.567455   0.000000  -0.422923   0.179779


              PY  C  2   PZ  C  2    S  C  3   PX  C  3   PY  C  3   PZ  C  3
 ------------------------------------------------------------------------------
 PY  C    2-116.850940
 PZ  C    2   0.000000-114.100208
  S  C    3  -3.223622   0.000000-128.657470
 PX  C    3  -1.649177   0.000000  -0.467077-115.709034
 PY  C    3   1.469745   0.000000   7.287259   0.196140-119.763341
 PZ  C    3   0.000000  -1.349926   0.000000  -0.000000   0.000000-114.100208
  S  H    4   1.994686  -0.000000  -0.422923  -0.375188   0.417281  -0.000000
  S  H    5  -0.531572   0.000000  -5.309391   0.130291  -3.837342   0.000000


               S  H  4    S  H  5
 ------------------------------
  S  H    4 -97.426124
  S  H    5  -0.082407 -97.426124


          TWO-ELECTRON MATRIX IN HCORE

 13.3355  0.0000 11.5281  0.0000  0.0000 11.5281  0.0000  0.0000  0.0000 11.5281
  0.0000  0.7173  0.0000  0.0000  0.0000  0.0000  0.0000  0.0000  0.0000  0.0000
 11.5281  0.0000 10.7783  0.0000  0.0000  9.4862  0.0000  0.0000  0.0000  9.4862
  0.0000  0.0000  0.0000  0.7173  0.0000  0.0000  0.0000  0.0000  0.0000  0.0000
  0.0000  0.0000  0.0000  0.0000  0.6461  0.0000  0.0000  0.0000  0.0000  0.0000
 11.5281  0.0000  9.4862  0.0000  0.0000 10.7783  0.0000  0.0000  0.0000  9.4862
  0.0000  0.0000  0.0000  0.0000  0.0000  0.0000  0.7173  0.0000  0.0000  0.0000
  0.0000  0.0000  0.0000  0.0000  0.0000  0.0000  0.0000  0.6461  0.0000  0.0000
  0.0000  0.0000  0.0000  0.0000  0.0000  0.0000  0.0000  0.0000  0.6461  0.0000
 11.5281  0.0000  9.4862  0.0000  0.0000  9.4862  0.0000  0.0000  0.0000 10.7783
  7.8332  1.1937  8.2455  0.0000  0.0000  7.4980  0.0000  0.0000  0.0000  7.4980
 -1.1937 -0.1390 -1.1522  0.0000  0.0000 -1.0437  0.0000  0.0000  0.0000 -1.0437
  8.2455  1.1522  8.4293  0.0000  0.0000  7.7616  0.0000  0.0000  0.0000  7.7616
  0.0000  0.0000  0.0000  0.2488  0.1480  0.0000  0.0000  0.0000  0.0000  0.0000
  0.0000  0.0000  0.0000 -0.1480 -0.1486  0.0000  0.0000  0.0000  0.0000  0.0000
  7.4980  1.0437  7.7616  0.0000  0.0000  7.2642  0.0000  0.0000  0.0000  7.2048
  0.0000  0.0000  0.0000  0.0000  0.0000  0.0000  0.2488  0.1480  0.0000  0.0000
  0.0000  0.0000  0.0000  0.0000  0.0000  0.0000 -0.1480 -0.1486  0.0000  0.0000
  0.0000  0.0000  0.0000  0.0000  0.0000  0.0000  0.0000  0.0000  0.0297  0.0000
  7.4980  1.0437  7.7616  0.0000  0.0000  7.2048  0.0000  0.0000  0.0000  7.2642
 13.3355  0.0000 11.5281  0.0000  0.0000 11.5281  0.0000  0.0000  0.0000 11.5281
  0.0000  0.7173  0.0000  0.0000  0.0000  0.0000  0.0000  0.0000  0.0000  0.0000
 11.5281  0.0000 10.7783  0.0000  0.0000  9.4862  0.0000  0.0000  0.0000  9.4862
  0.0000  0.0000  0.0000  0.7173  0.0000  0.0000  0.0000  0.0000  0.0000  0.0000
  0.0000  0.0000  0.0000  0.0000  0.6461  0.0000  0.0000  0.0000  0.0000  0.0000
 11.5281  0.0000  9.4862  0.0000  0.0000 10.7783  0.0000  0.0000  0.0000  9.4862
  0.0000  0.0000  0.0000  0.0000  0.0000  0.0000  0.7173  0.0000  0.0000  0.0000
  0.0000  0.0000  0.0000  0.0000  0.0000  0.0000  0.0000  0.6461  0.0000  0.0000
  0.0000  0.0000  0.0000  0.0000  0.0000  0.0000  0.0000  0.0000  0.6461  0.0000
 11.5281  0.0000  9.4862  0.0000  0.0000  9.4862  0.0000  0.0000  0.0000 10.7783
  7.8332  0.5852  7.6776  1.0404  0.3194  8.0658  0.0000  0.0000  0.0000  7.4980
 -0.5852  0.1556 -0.4142 -0.1657  0.0443 -0.6623  0.0000  0.0000  0.0000 -0.5117
  7.6776  0.4142  7.4046  0.9944  0.1640  7.9012  0.0000  0.0000  0.0000  7.3386
 -1.0404 -0.1657 -0.9944 -0.0458 -0.0781 -0.9196  0.0000  0.0000  0.0000 -0.9097
  0.3194 -0.0443  0.1640  0.0781 -0.0090  0.3338  0.0000  0.0000  0.0000  0.2379
  8.0658  0.6623  7.9012  0.9196  0.3338  8.0097  0.0000  0.0000  0.0000  7.6278
  0.0000  0.0000  0.0000  0.0000  0.0000  0.0000  0.2488  0.0726  0.1290  0.0000
  0.0000  0.0000  0.0000  0.0000  0.0000  0.0000 -0.0726 -0.0131 -0.0762  0.0000
  0.0000  0.0000  0.0000  0.0000  0.0000  0.0000 -0.1290 -0.0762 -0.1058  0.0000
  7.4980  0.5117  7.3386  0.9097  0.2379  7.6278  0.0000  0.0000  0.0000  7.2642
  7.7835 -0.5983  7.6429  1.0230 -0.3220  8.0052  0.0000  0.0000  0.0000  7.4546
  0.5983  0.1467  0.4292  0.1685  0.0369  0.6752  0.0000  0.0000  0.0000  0.5241
  7.6429 -0.4292  7.3776  0.9844 -0.1731  7.8628  0.0000  0.0000  0.0000  7.3074
 -1.0230  0.1685 -0.9844 -0.0429  0.0779 -0.9038  0.0000  0.0000  0.0000 -0.8960
 -0.3220 -0.0369 -0.1731 -0.0779 -0.0018 -0.3344  0.0000  0.0000  0.0000 -0.2410
  8.0052 -0.6752  7.8628  0.9038 -0.3344  7.9484  0.0000  0.0000  0.0000  7.5784
  0.0000  0.0000  0.0000  0.0000  0.0000  0.0000  0.2452 -0.0733  0.1253  0.0000
  0.0000  0.0000  0.0000  0.0000  0.0000  0.0000  0.0733 -0.0155  0.0759  0.0000
  0.0000  0.0000  0.0000  0.0000  0.0000  0.0000 -0.1253  0.0759 -0.1009  0.0000
  7.4546 -0.5241  7.3074  0.8960 -0.2410  7.5784  0.0000  0.0000  0.0000  7.2242
 13.3355  0.0000 11.5281  0.0000  0.0000 11.5281  0.0000  0.0000  0.0000 11.5281
  0.0000  0.7173  0.0000  0.0000  0.0000  0.0000  0.0000  0.0000  0.0000  0.0000
 11.5281  0.0000 10.7783  0.0000  0.0000  9.4862  0.0000  0.0000  0.0000  9.4862
  0.0000  0.0000  0.0000  0.7173  0.0000  0.0000  0.0000  0.0000  0.0000  0.0000
  0.0000  0.0000  0.0000  0.0000  0.6461  0.0000  0.0000  0.0000  0.0000  0.0000
 11.5281  0.0000  9.4862  0.0000  0.0000 10.7783  0.0000  0.0000  0.0000  9.4862
  0.0000  0.0000  0.0000  0.0000  0.0000  0.0000  0.7173  0.0000  0.0000  0.0000
  0.0000  0.0000  0.0000  0.0000  0.0000  0.0000  0.0000  0.6461  0.0000  0.0000
  0.0000  0.0000  0.0000  0.0000  0.0000  0.0000  0.0000  0.0000  0.6461  0.0000
 11.5281  0.0000  9.4862  0.0000  0.0000  9.4862  0.0000  0.0000  0.0000 10.7783
  5.4147  0.6897  5.6012 -0.1579 -0.0680  5.3198  0.0000  0.0000 -0.0000  5.3042
  9.7427  1.2680  9.8474 -0.7710 -0.4539  9.3768  0.0000  0.0000 -0.0000  9.1008
  5.3583  0.4647  5.3870 -0.5169 -0.1509  5.4192  0.0000  0.0000 -0.0000  5.2513
 14.4487  5.4147  0.2004  5.3293  0.6786  0.0849  5.5917 -0.0000 -0.0000 -0.0000
  5.3042  5.3583 -0.2227  5.2825  0.6585 -0.0921  5.5237 -0.0000  0.0000 -0.0000
  5.2513  9.7427 -0.0504  9.1020  1.4831 -0.0347 10.1222 -0.0000  0.0000 -0.0000
  9.1008  4.1162 14.4487
 
 PARAMETER VALUES USED IN THE CALCULATION
 
  NI    TYPE        VALUE     UNIT
 
 
   1  USS     -11.24695800  EV        ONE-CENTER ENERGY FOR S
   1  ZS        1.26864100  AU        ORBITAL EXPONENT  FOR S
   1  BETAS    -8.35298400  EV        BETA PARAMETER    FOR S
   1  GSS      14.44868600  EV        ONE-CENTER INTEGRAL (SS,SS)
   1  PO1       0.94165599  BOHR      KLOPMAN-OHNO TERM, SS, L=0
   1  PO7       0.94165599  BOHR      KLOPMAN-OHNO TERM, PP, L=0
   1  PO9       0.94165599  BOHR      KLOPMAN-OHNO TERM, CORE
   1  CORE      1.00000000  E         CORE CHARGE
   1  EHEAT    52.10200000  KCAL/MOL  HEAT OF FORMATION OF THE ATOM (EXP)
   1  EISOL   -11.24695800  EV        TOTAL ENERGY OF THE ATOM (CALC)
   1  FN11      0.02418400  CORE-CORE VDW MULTIPLIER 1
   1  FN21      3.05595300  CORE-CORE VDW EXPONENT 1
   1  FN31      1.78601100  CORE-CORE VDW POSITION 1
   1 ALPB_ 1   3.54094200  ALPB factor
   1 XFAC_ 1   2.24358700  XFAC factor
   1 ALPB_ 6   1.02780600  ALPB factor
   1 XFAC_ 6   0.21650600  XFAC factor
 
   6  USS     -51.08965300  EV        ONE-CENTER ENERGY FOR S
   6  UPP     -39.93792000  EV        ONE-CENTER ENERGY FOR P
   6  ZS        2.04755800  AU        ORBITAL EXPONENT  FOR S
   6  ZP        1.70284100  AU        ORBITAL EXPONENT  FOR P
   6  BETAS   -15.38523600  EV        BETA PARAMETER    FOR S
   6  BETAP    -7.47192900  EV        BETA PARAMETER    FOR P
   6  GSS      13.33551900  EV        ONE-CENTER INTEGRAL (SS,SS)
   6  GPP      10.77832600  EV        ONE-CENTER INTEGRAL (PP,PP)
   6  GSP      11.52813400  EV        ONE-CENTER INTEGRAL (SS,PP)
   6  GP2       9.48621200  EV        ONE-CENTER INTEGRAL (PP*,PP*)
   6  HSP       0.71732200  EV        ONE-CENTER INTEGRAL (SP,SP)
   6  DD2       0.75356425  BOHR      CHARGE SEPARATION, SP, L=1
   6  DD3       1.01715357  BOHR      CHARGE SEPARATION, PP, L=2
   6   =        0.71923619  BOHR      USING ORIGINAL MNDO PAPER FORMULA
   6  PO1       1.02025963  BOHR      KLOPMAN-OHNO TERM, SS, L=0
   6  PO2       1.29184422  BOHR      KLOPMAN-OHNO TERM, SP, L=1
   6  PO3       0.76267645  BOHR      KLOPMAN-OHNO TERM, PP, L=2
   6  PO7       1.02025963  BOHR      KLOPMAN-OHNO TERM, PP, L=0
   6  PO9       1.02025963  BOHR      KLOPMAN-OHNO TERM, CORE
   6  CORE      4.00000000  E         CORE CHARGE
   6  EHEAT   170.89000000  KCAL/MOL  HEAT OF FORMATION OF THE ATOM (EXP)
   6  EISOL  -115.20158000  EV        TOTAL ENERGY OF THE ATOM (CALC)
   6  FN11      0.04630200  CORE-CORE VDW MULTIPLIER 1
   6  FN21      2.10020600  CORE-CORE VDW EXPONENT 1
   6  FN31      1.33395900  CORE-CORE VDW POSITION 1
   6 ALPB_ 1   1.02780600  ALPB factor
   6 XFAC_ 1   0.21650600  XFAC factor
   6 ALPB_ 6   2.61371300  ALPB factor
   6 XFAC_ 6   0.81351000  XFAC factor


          ONE-ELECTRON MATRIX FROM HCORE


               S  C  1   PX  C  1   PY  C  1   PZ  C  1    S  C  2   PX  C  2
 ------------------------------------------------------------------------------
  S  C    1-125.405009
 PX  C    1  -8.347481-115.506336
 PY  C    1  -4.603486  -1.404150-113.734560
 PZ  C    1  -0.000000  -0.000000   0.000000-111.248687
  S  C    2  -3.433276  -3.941997   0.000000   0.000000-130.427621
 PX  C    2   3.941997   2.463767   0.000000   0.000000   6.176532-120.207065
 PY  C    2   0.000000   0.000000  -1.457382   0.000000  -4.257702   1.886235
 PZ  C    2   0.000000   0.000000   0.000000  -1.457382  -0.000000  -0.000000
  S  C    3  -3.433276  -2.103397  -3.333926   0.000000  -3.766690   2.026599
 PX  C    3   2.103397  -0.340974   1.769530   0.000000  -2.026599  -0.645096
 PY  C    3   3.333926   1.769530   1.347358   0.000000   3.674824  -1.725193
 PZ  C    3   0.000000   0.000000   0.000000  -1.457382   0.000000   0.000000
  S  H    4  -0.468022  -0.595675   0.141078  -0.000000  -5.236625  -3.240539
  S  H    5  -0.468022  -0.198528  -0.579067   0.000000  -0.501976   0.182762


              PY  C  2   PZ  C  2    S  C  3   PX  C  3   PY  C  3   PZ  C  3
 ------------------------------------------------------------------------------
 PY  C    2-118.667832
 PZ  C    2   0.000000-115.651203
  S  C    3  -3.674824   0.000000-130.427621
 PX  C    3  -1.725193   0.000000  -0.305217-117.403640
 PY  C    3   1.531777   0.000000   7.495627   0.117535-121.471257
 PZ  C    3   0.000000  -1.596509   0.000000  -0.000000   0.000000-115.651203
  S  H    4   2.009804  -0.000000  -0.501976  -0.429989   0.487379  -0.000000
  S  H    5  -0.623720   0.000000  -5.236625  -0.029326  -3.813075   0.000000


               S  H  4    S  H  5
 ------------------------------
  S  H    4 -98.129108
  S  H    5  -0.097778 -98.129108


          TWO-ELECTRON MATRIX IN HCORE

 13.3355  0.0000 11.5281  0.0000  0.0000 11.5281  0.0000  0.0000  0.0000 11.5281
  0.0000  0.7173  0.0000  0.0000  0.0000  0.0000  0.0000  0.0000  0.0000  0.0000
 11.5281  0.0000 10.7783  0.0000  0.0000  9.4862  0.0000  0.0000  0.0000  9.4862
  0.0000  0.0000  0.0000  0.7173  0.0000  0.0000  0.0000  0.0000  0.0000  0.0000
  0.0000  0.0000  0.0000  0.0000  0.6461  0.0000  0.0000  0.0000  0.0000  0.0000
 11.5281  0.0000  9.4862  0.0000  0.0000 10.7783  0.0000  0.0000  0.0000  9.4862
  0.0000  0.0000  0.0000  0.0000  0.0000  0.0000  0.7173  0.0000  0.0000  0.0000
  0.0000  0.0000  0.0000  0.0000  0.0000  0.0000  0.0000  0.6461  0.0000  0.0000
  0.0000  0.0000  0.0000  0.0000  0.0000  0.0000  0.0000  0.0000  0.6461  0.0000
 11.5281  0.0000  9.4862  0.0000  0.0000  9.4862  0.0000  0.0000  0.0000 10.7783
  7.9265  1.2094  8.3424  0.0000  0.0000  7.5791  0.0000  0.0000  0.0000  7.5791
 -1.2094 -0.1342 -1.1565  0.0000  0.0000 -1.0541  0.0000  0.0000  0.0000 -1.0541
  8.3424  1.1565  8.5039  0.0000  0.0000  7.8401  0.0000  0.0000  0.0000  7.8401
  0.0000  0.0000  0.0000  0.2557  0.1533  0.0000  0.0000  0.0000  0.0000  0.0000
  0.0000  0.0000  0.0000 -0.1533 -0.1549  0.0000  0.0000  0.0000  0.0000  0.0000
  7.5791  1.0541  7.8401  0.0000  0.0000  7.3390  0.0000  0.0000  0.0000  7.2763
  0.0000  0.0000  0.0000  0.0000  0.0000  0.0000  0.2557  0.1533  0.0000  0.0000
  0.0000  0.0000  0.0000  0.0000  0.0000  0.0000 -0.1533 -0.1549  0.0000  0.0000
  0.0000  0.0000  0.0000  0.0000  0.0000  0.0000  0.0000  0.0000  0.0313  0.0000
  7.5791  1.0541  7.8401  0.0000  0.0000  7.2763  0.0000  0.0000  0.0000  7.3390
 13.3355  0.0000 11.5281  0.0000  0.0000 11.5281  0.0000  0.0000  0.0000 11.5281
  0.0000  0.7173  0.0000  0.0000  0.0000  0.0000  0.0000  0.0000  0.0000  0.0000
 11.5281  0.0000 10.7783  0.0000  0.0000  9.4862  0.0000  0.0000  0.0000  9.4862
  0.0000  0.0000  0.0000  0.7173  0.0000  0.0000  0.0000  0.0000  0.0000  0.0000
  0.0000  0.0000  0.0000  0.0000  0.6461  0.0000  0.0000  0.0000  0.0000  0.0000
 11.5281  0.0000  9.4862  0.0000  0.0000 10.7783  0.0000  0.0000  0.0000  9.4862
  0.0000  0.0000  0.0000  0.0000  0.0000  0.0000  0.7173  0.0000  0.0000  0.0000
  0.0000  0.0000  0.0000  0.0000  0.0000  0.0000  0.0000  0.6461  0.0000  0.0000
  0.0000  0.0000  0.0000  0.0000  0.0000  0.0000  0.0000  0.0000  0.6461  0.0000
 11.5281  0.0000  9.4862  0.0000  0.0000  9.4862  0.0000  0.0000  0.0000 10.7783
  7.9265  0.6453  7.7965  1.0229  0.3445  8.1251  0.0000  0.0000  0.0000  7.5791
 -0.6453  0.1447 -0.4610 -0.1760  0.0312 -0.7186  0.0000  0.0000  0.0000 -0.5625
  7.7965  0.4610  7.5113  0.9900  0.1868  7.9994  0.0000  0.0000  0.0000  7.4368
 -1.0229 -0.1760 -0.9900 -0.0231 -0.0743 -0.8797  0.0000  0.0000  0.0000 -0.8915
  0.3445 -0.0312  0.1868  0.0743  0.0044  0.3389  0.0000  0.0000  0.0000  0.2544
  8.1251  0.7186  7.9994  0.8797  0.3389  8.0129  0.0000  0.0000  0.0000  7.6796
  0.0000  0.0000  0.0000  0.0000  0.0000  0.0000  0.2557  0.0818  0.1296  0.0000
  0.0000  0.0000  0.0000  0.0000  0.0000  0.0000 -0.0818 -0.0217 -0.0841  0.0000
  0.0000  0.0000  0.0000  0.0000  0.0000  0.0000 -0.1296 -0.0841 -0.1019  0.0000
  7.5791  0.5625  7.4368  0.8915  0.2544  7.6796  0.0000  0.0000  0.0000  7.3390
  8.1045 -0.5980  7.9178  1.0843 -0.3350  8.3405  0.0000  0.0000  0.0000  7.7331
  0.5980  0.1775  0.4070  0.1661  0.0582  0.6721  0.0000  0.0000  0.0000  0.5180
  7.9178 -0.4070  7.6054  1.0243 -0.1533  8.1327  0.0000  0.0000  0.0000  7.5457
 -1.0843  0.1661 -1.0243 -0.0321  0.0752 -0.9324  0.0000  0.0000  0.0000 -0.9393
 -0.3350 -0.0582 -0.1533 -0.0752 -0.0212 -0.3372  0.0000  0.0000  0.0000 -0.2433
  8.3405 -0.6721  8.1327  0.9324 -0.3372  8.2243  0.0000  0.0000  0.0000  7.8527
  0.0000  0.0000  0.0000  0.0000  0.0000  0.0000  0.2691 -0.0789  0.1432  0.0000
  0.0000  0.0000  0.0000  0.0000  0.0000  0.0000  0.0789 -0.0124  0.0852  0.0000
  0.0000  0.0000  0.0000  0.0000  0.0000  0.0000 -0.1432  0.0852 -0.1199  0.0000
  7.7331 -0.5180  7.5457  0.9393 -0.2433  7.8527  0.0000  0.0000  0.0000  7.4806
 13.3355  0.0000 11.5281  0.0000  0.0000 11.5281  0.0000  0.0000  0.0000 11.5281
  0.0000  0.7173  0.0000  0.0000  0.0000  0.0000  0.0000  0.0000  0.0000  0.0000
 11.5281  0.0000 10.7783  0.0000  0.0000  9.4862  0.0000  0.0000  0.0000  9.4862
  0.0000  0.0000  0.0000  0.7173  0.0000  0.0000  0.0000  0.0000  0.0000  0.0000
  0.0000  0.0000  0.0000  0.0000  0.6461  0.0000  0.0000  0.0000  0.0000  0.0000
 11.5281  0.0000  9.4862  0.0000  0.0000 10.7783  0.0000  0.0000  0.0000  9.4862
  0.0000  0.0000  0.0000  0.0000  0.0000  0.0000  0.7173  0.0000  0.0000  0.0000
  0.0000  0.0000  0.0000  0.0000  0.0000  0.0000  0.0000  0.6461  0.0000  0.0000
  0.0000  0.0000  0.0000  0.0000  0.0000  0.0000  0.0000  0.0000  0.6461  0.0000
 11.5281  0.0000  9.4862  0.0000  0.0000  9.4862  0.0000  0.0000  0.0000 10.7783
  5.4516  0.6964  5.6405 -0.1649 -0.0714  5.3558  0.0000  0.0000 -0.0000  5.3389
  9.6957  1.2584  9.8007 -0.7804 -0.4575  9.3468  0.0000  0.0000 -0.0000  9.0630
  5.5181  0.4833  5.5454 -0.5478 -0.1634  5.5865  0.0000  0.0000 -0.0000  5.4012
 14.4487  5.4516  0.2321  5.3724  0.6770  0.0977  5.6239 -0.0000 -0.0000 -0.0000
  5.3389  5.5181 -0.2054  5.4273  0.7010 -0.0889  5.7046 -0.0000  0.0000 -0.0000
  5.4012  9.6957  0.0114  9.0631  1.4807  0.0079 10.0844 -0.0000 -0.0000 -0.0000
  9.0630  4.2206 14.4487
 
 PARAMETER VALUES USED IN THE CALCULATION
 
  NI    TYPE        VALUE     UNIT
 
 
   1  USS     -11.24695800  EV        ONE-CENTER ENERGY FOR S
   1  ZS        1.26864100  AU        ORBITAL EXPONENT  FOR S
   1  BETAS    -8.35298400  EV        BETA PARAMETER    FOR S
   1  GSS      14.44868600  EV        ONE-CENTER INTEGRAL (SS,SS)
   1  PO1       0.94165599  BOHR      KLOPMAN-OHNO TERM, SS, L=0
   1  PO7       0.94165599  BOHR      KLOPMAN-OHNO TERM, PP, L=0
   1  PO9       0.94165599  BOHR      KLOPMAN-OHNO TERM, CORE
   1  CORE      1.00000000  E         CORE CHARGE
   1  EHEAT    52.10200000  KCAL/MOL  HEAT OF FORMATION OF THE ATOM (EXP)
   1  EISOL   -11.24695800  EV        TOTAL ENERGY OF THE ATOM (CALC)
   1  FN11      0.02418400  CORE-CORE VDW MULTIPLIER 1
   1  FN21      3.05595300  CORE-CORE VDW EXPONENT 1
   1  FN31      1.78601100  CORE-CORE VDW POSITION 1
   1 ALPB_ 1   3.54094200  ALPB factor
   1 XFAC_ 1   2.24358700  XFAC factor
   1 ALPB_ 6   1.02780600  ALPB factor
   1 XFAC_ 6   0.21650600  XFAC factor
 
   6  USS     -51.08965300  EV        ONE-CENTER ENERGY FOR S
   6  UPP     -39.93792000  EV        ONE-CENTER ENERGY FOR P
   6  ZS        2.04755800  AU        ORBITAL EXPONENT  FOR S
   6  ZP        1.70284100  AU        ORBITAL EXPONENT  FOR P
   6  BETAS   -15.38523600  EV        BETA PARAMETER    FOR S
   6  BETAP    -7.47192900  EV        BETA PARAMETER    FOR P
   6  GSS      13.33551900  EV        ONE-CENTER INTEGRAL (SS,SS)
   6  GPP      10.77832600  EV        ONE-CENTER INTEGRAL (PP,PP)
   6  GSP      11.52813400  EV        ONE-CENTER INTEGRAL (SS,PP)
   6  GP2       9.48621200  EV        ONE-CENTER INTEGRAL (PP*,PP*)
   6  HSP       0.71732200  EV        ONE-CENTER INTEGRAL (SP,SP)
   6  DD2       0.75356425  BOHR      CHARGE SEPARATION, SP, L=1
   6  DD3       1.01715357  BOHR      CHARGE SEPARATION, PP, L=2
   6   =        0.71923619  BOHR      USING ORIGINAL MNDO PAPER FORMULA
   6  PO1       1.02025963  BOHR      KLOPMAN-OHNO TERM, SS, L=0
   6  PO2       1.29184422  BOHR      KLOPMAN-OHNO TERM, SP, L=1
   6  PO3       0.76267645  BOHR      KLOPMAN-OHNO TERM, PP, L=2
   6  PO7       1.02025963  BOHR      KLOPMAN-OHNO TERM, PP, L=0
   6  PO9       1.02025963  BOHR      KLOPMAN-OHNO TERM, CORE
   6  CORE      4.00000000  E         CORE CHARGE
   6  EHEAT   170.89000000  KCAL/MOL  HEAT OF FORMATION OF THE ATOM (EXP)
   6  EISOL  -115.20158000  EV        TOTAL ENERGY OF THE ATOM (CALC)
   6  FN11      0.04630200  CORE-CORE VDW MULTIPLIER 1
   6  FN21      2.10020600  CORE-CORE VDW EXPONENT 1
   6  FN31      1.33395900  CORE-CORE VDW POSITION 1
   6 ALPB_ 1   1.02780600  ALPB factor
   6 XFAC_ 1   0.21650600  XFAC factor
   6 ALPB_ 6   2.61371300  ALPB factor
   6 XFAC_ 6   0.81351000  XFAC factor


          ONE-ELECTRON MATRIX FROM HCORE


               S  C  1   PX  C  1   PY  C  1   PZ  C  1    S  C  2   PX  C  2
 ------------------------------------------------------------------------------
  S  C    1-125.973964
 PX  C    1  -8.515582-116.123514
 PY  C    1  -4.581978  -1.453184-114.204694
 PZ  C    1   0.000000  -0.000000   0.000000-111.745446
  S  C    2  -3.553799  -4.035670   0.000000   0.000000-131.377937
 PX  C    2   4.035670   2.473135   0.000000   0.000000   6.217857-121.064362
 PY  C    2   0.000000   0.000000  -1.507589   0.000000  -4.385796   1.908501
 PZ  C    2   0.000000   0.000000   0.000000  -1.507589  -0.000000  -0.000000
  S  C    3  -3.553799  -2.223516  -3.367880   0.000000  -4.079917   2.095808
 PX  C    3   2.223516  -0.299188   1.830322   0.000000  -2.095808  -0.782393
 PY  C    3   3.367880   1.830322   1.264734   0.000000   3.895048  -1.757277
 PZ  C    3   0.000000   0.000000   0.000000  -1.507589   0.000000   0.000000
  S  H    4  -0.480117  -0.608222   0.146743  -0.000000  -5.186913  -3.217637
  S  H    5  -0.480117  -0.212648  -0.588428   0.000000  -0.542242   0.183059


              PY  C  2   PZ  C  2    S  C  3   PX  C  3   PY  C  3   PZ  C  3
 ------------------------------------------------------------------------------
 PY  C    2-119.615167
 PZ  C    2   0.000000-116.477419
  S  C    3  -3.895048   0.000000-131.377937
 PX  C    3  -1.757277   0.000000  -0.234244-118.300047
 PY  C    3   1.537958   0.000000   7.605398   0.083466-122.379483
 PZ  C    3   0.000000  -1.727931   0.000000  -0.000000   0.000000-116.477419
  S  H    4   2.011820  -0.000000  -0.542242  -0.457905   0.521671  -0.000000
  S  H    5  -0.669557   0.000000  -5.186913  -0.093887  -3.793651   0.000000


               S  H  4    S  H  5
 ------------------------------
  S  H    4 -98.444615
  S  H    5  -0.105244 -98.444615


          TWO-ELECTRON MATRIX IN HCORE

 13.3355  0.0000 11.5281  0.0000  0.0000 11.5281  0.0000  0.0000  0.0000 11.5281
  0.0000  0.7173  0.0000  0.0000  0.0000  0.0000  0.0000  0.0000  0.0000  0.0000
 11.5281  0.0000 10.7783  0.0000  0.0000  9.4862  0.0000  0.0000  0.0000  9.4862
  0.0000  0.0000  0.0000  0.7173  0.0000  0.0000  0.0000  0.0000  0.0000  0.0000
  0.0000  0.0000  0.0000  0.0000  0.6461  0.0000  0.0000  0.0000  0.0000  0.0000
 11.5281  0.0000  9.4862  0.0000  0.0000 10.7783  0.0000  0.0000  0.0000  9.4862
  0.0000  0.0000  0.0000  0.0000  0.0000  0.0000  0.7173  0.0000  0.0000  0.0000
  0.0000  0.0000  0.0000  0.0000  0.0000  0.0000  0.0000  0.6461  0.0000  0.0000
  0.0000  0.0000  0.0000  0.0000  0.0000  0.0000  0.0000  0.0000  0.6461  0.0000
 11.5281  0.0000  9.4862  0.0000  0.0000  9.4862  0.0000  0.0000  0.0000 10.7783
  7.9916  1.2201  8.4096  0.0000  0.0000  7.6356  0.0000  0.0000  0.0000  7.6356
 -1.2201 -0.1305 -1.1589  0.0000  0.0000 -1.0611  0.0000  0.0000  0.0000 -1.0611
  8.4096  1.1589  8.5547  0.0000  0.0000  7.8942  0.0000  0.0000  0.0000  7.8942
  0.0000  0.0000  0.0000  0.2606  0.1570  0.0000  0.0000  0.0000  0.0000  0.0000
  0.0000  0.0000  0.0000 -0.1570 -0.1593  0.0000  0.0000  0.0000  0.0000  0.0000
  7.6356  1.0611  7.8942  0.0000  0.0000  7.3909  0.0000  0.0000  0.0000  7.3260
  0.0000  0.0000  0.0000  0.0000  0.0000  0.0000  0.2606  0.1570  0.0000  0.0000
  0.0000  0.0000  0.0000  0.0000  0.0000  0.0000 -0.1570 -0.1593  0.0000  0.0000
  0.0000  0.0000  0.0000  0.0000  0.0000  0.0000  0.0000  0.0000  0.0325  0.0000
  7.6356  1.0611  7.8942  0.0000  0.0000  7.3260  0.0000  0.0000  0.0000  7.3909
 13.3355  0.0000 11.5281  0.0000  0.0000 11.5281  0.0000  0.0000  0.0000 11.5281
  0.0000  0.7173  0.0000  0.0000  0.0000  0.0000  0.0000  0.0000  0.0000  0.0000
 11.5281  0.0000 10.7783  0.0000  0.0000  9.4862  0.0000  0.0000  0.0000  9.4862
  0.0000  0.0000  0.0000  0.7173  0.0000  0.0000  0.0000  0.0000  0.0000  0.0000
  0.0000  0.0000  0.0000  0.0000  0.6461  0.0000  0.0000  0.0000  0.0000  0.0000
 11.5281  0.0000  9.4862  0.0000  0.0000 10.7783  0.0000  0.0000  0.0000  9.4862
  0.0000  0.0000  0.0000  0.0000  0.0000  0.0000  0.7173  0.0000  0.0000  0.0000
  0.0000  0.0000  0.0000  0.0000  0.0000  0.0000  0.0000  0.6461  0.0000  0.0000
  0.0000  0.0000  0.0000  0.0000  0.0000  0.0000  0.0000  0.0000  0.6461  0.0000
 11.5281  0.0000  9.4862  0.0000  0.0000  9.4862  0.0000  0.0000  0.0000 10.7783
  7.9916  0.6723  7.8706  1.0182  0.3559  8.1747  0.0000  0.0000  0.0000  7.6356
 -0.6723  0.1419 -0.4805 -0.1798  0.0267 -0.7427  0.0000  0.0000  0.0000 -0.5846
  7.8706  0.4805  7.5762  0.9899  0.1958  8.0622  0.0000  0.0000  0.0000  7.4985
 -1.0182 -0.1798 -0.9899 -0.0118 -0.0715 -0.8629  0.0000  0.0000  0.0000 -0.8855
  0.3559 -0.0267  0.1958  0.0715  0.0086  0.3393  0.0000  0.0000  0.0000  0.2613
  8.1747  0.7427  8.0622  0.8629  0.3393  8.0335  0.0000  0.0000  0.0000  7.7217
  0.0000  0.0000  0.0000  0.0000  0.0000  0.0000  0.2606  0.0865  0.1310  0.0000
  0.0000  0.0000  0.0000  0.0000  0.0000  0.0000 -0.0865 -0.0258 -0.0882  0.0000
  0.0000  0.0000  0.0000  0.0000  0.0000  0.0000 -0.1310 -0.0882 -0.1011  0.0000
  7.6356  0.5846  7.4985  0.8855  0.2613  7.7217  0.0000  0.0000  0.0000  7.3909
  8.2662 -0.5984  8.0554  1.1122 -0.3407  8.5052  0.0000  0.0000  0.0000  7.8721
  0.5984  0.1929  0.3965  0.1645  0.0689  0.6703  0.0000  0.0000  0.0000  0.5155
  8.0554 -0.3965  7.7197  1.0413 -0.1431  8.2637  0.0000  0.0000  0.0000  7.6640
 -1.1122  0.1645 -1.0413 -0.0243  0.0729 -0.9413  0.0000  0.0000  0.0000 -0.9580
 -0.3407 -0.0689 -0.1431 -0.0729 -0.0307 -0.3369  0.0000  0.0000  0.0000 -0.2437
  8.5052 -0.6703  8.2637  0.9413 -0.3369  8.3535  0.0000  0.0000  0.0000  7.9858
  0.0000  0.0000  0.0000  0.0000  0.0000  0.0000  0.2814 -0.0819  0.1522  0.0000
  0.0000  0.0000  0.0000  0.0000  0.0000  0.0000  0.0819 -0.0106  0.0898  0.0000
  0.0000  0.0000  0.0000  0.0000  0.0000  0.0000 -0.1522  0.0898 -0.1292  0.0000
  7.8721 -0.5155  7.6640  0.9580 -0.2437  7.9858  0.0000  0.0000  0.0000  7.6083
 13.3355  0.0000 11.5281  0.0000  0.0000 11.5281  0.0000  0.0000  0.0000 11.5281
  0.0000  0.7173  0.0000  0.0000  0.0000  0.0000  0.0000  0.0000  0.0000  0.0000
 11.5281  0.0000 10.7783  0.0000  0.0000  9.4862  0.0000  0.0000  0.0000  9.4862
  0.0000  0.0000  0.0000  0.7173  0.0000  0.0000  0.0000  0.0000  0.0000  0.0000
  0.0000  0.0000  0.0000  0.0000  0.6461  0.0000  0.0000  0.0000  0.0000  0.0000
 11.5281  0.0000  9.4862  0.0000  0.0000 10.7783  0.0000  0.0000  0.0000  9.4862
  0.0000  0.0000  0.0000  0.0000  0.0000  0.0000  0.7173  0.0000  0.0000  0.0000
  0.0000  0.0000  0.0000  0.0000  0.0000  0.0000  0.0000  0.6461  0.0000  0.0000
  0.0000  0.0000  0.0000  0.0000  0.0000  0.0000  0.0000  0.0000  0.6461  0.0000
 11.5281  0.0000  9.4862  0.0000  0.0000  9.4862  0.0000  0.0000  0.0000 10.7783
  5.4756  0.7009  5.6661 -0.1691 -0.0735  5.3792  0.0000  0.0000 -0.0000  5.3614
  9.6635  1.2535  9.7708 -0.7838 -0.4587  9.3240  0.0000  0.0000 -0.0000  9.0371
  5.5935  0.4929  5.6206 -0.5616 -0.1695  5.6649  0.0000  0.0000 -0.0000  5.4718
 14.4487  5.4756  0.2451  5.3987  0.6781  0.1031  5.6466 -0.0000 -0.0000 -0.0000
  5.3614  5.5935 -0.1971  5.4955  0.7208 -0.0870  5.7900 -0.0000  0.0000 -0.0000
  5.4718  9.6635  0.0366  9.0378  1.4779  0.0252 10.0570 -0.0000 -0.0000 -0.0000
  9.0371  4.2673 14.4487
 CYCLE:     2 TIME:   0.004 TIME LEFT:  2.00D  GRAD.:    57.217 HEAT:  127.3062
 
 PARAMETER VALUES USED IN THE CALCULATION
 
  NI    TYPE        VALUE     UNIT
 
 
   1  USS     -11.24695800  EV        ONE-CENTER ENERGY FOR S
   1  ZS        1.26864100  AU        ORBITAL EXPONENT  FOR S
   1  BETAS    -8.35298400  EV        BETA PARAMETER    FOR S
   1  GSS      14.44868600  EV        ONE-CENTER INTEGRAL (SS,SS)
   1  PO1       0.94165599  BOHR      KLOPMAN-OHNO TERM, SS, L=0
   1  PO7       0.94165599  BOHR      KLOPMAN-OHNO TERM, PP, L=0
   1  PO9       0.94165599  BOHR      KLOPMAN-OHNO TERM, CORE
   1  CORE      1.00000000  E         CORE CHARGE
   1  EHEAT    52.10200000  KCAL/MOL  HEAT OF FORMATION OF THE ATOM (EXP)
   1  EISOL   -11.24695800  EV        TOTAL ENERGY OF THE ATOM (CALC)
   1  FN11      0.02418400  CORE-CORE VDW MULTIPLIER 1
   1  FN21      3.05595300  CORE-CORE VDW EXPONENT 1
   1  FN31      1.78601100  CORE-CORE VDW POSITION 1
   1 ALPB_ 1   3.54094200  ALPB factor
   1 XFAC_ 1   2.24358700  XFAC factor
   1 ALPB_ 6   1.02780600  ALPB factor
   1 XFAC_ 6   0.21650600  XFAC factor
 
   6  USS     -51.08965300  EV        ONE-CENTER ENERGY FOR S
   6  UPP     -39.93792000  EV        ONE-CENTER ENERGY FOR P
   6  ZS        2.04755800  AU        ORBITAL EXPONENT  FOR S
   6  ZP        1.70284100  AU        ORBITAL EXPONENT  FOR P
   6  BETAS   -15.38523600  EV        BETA PARAMETER    FOR S
   6  BETAP    -7.47192900  EV        BETA PARAMETER    FOR P
   6  GSS      13.33551900  EV        ONE-CENTER INTEGRAL (SS,SS)
   6  GPP      10.77832600  EV        ONE-CENTER INTEGRAL (PP,PP)
   6  GSP      11.52813400  EV        ONE-CENTER INTEGRAL (SS,PP)
   6  GP2       9.48621200  EV        ONE-CENTER INTEGRAL (PP*,PP*)
   6  HSP       0.71732200  EV        ONE-CENTER INTEGRAL (SP,SP)
   6  DD2       0.75356425  BOHR      CHARGE SEPARATION, SP, L=1
   6  DD3       1.01715357  BOHR      CHARGE SEPARATION, PP, L=2
   6   =        0.71923619  BOHR      USING ORIGINAL MNDO PAPER FORMULA
   6  PO1       1.02025963  BOHR      KLOPMAN-OHNO TERM, SS, L=0
   6  PO2       1.29184422  BOHR      KLOPMAN-OHNO TERM, SP, L=1
   6  PO3       0.76267645  BOHR      KLOPMAN-OHNO TERM, PP, L=2
   6  PO7       1.02025963  BOHR      KLOPMAN-OHNO TERM, PP, L=0
   6  PO9       1.02025963  BOHR      KLOPMAN-OHNO TERM, CORE
   6  CORE      4.00000000  E         CORE CHARGE
   6  EHEAT   170.89000000  KCAL/MOL  HEAT OF FORMATION OF THE ATOM (EXP)
   6  EISOL  -115.20158000  EV        TOTAL ENERGY OF THE ATOM (CALC)
   6  FN11      0.04630200  CORE-CORE VDW MULTIPLIER 1
   6  FN21      2.10020600  CORE-CORE VDW EXPONENT 1
   6  FN31      1.33395900  CORE-CORE VDW POSITION 1
   6 ALPB_ 1   1.02780600  ALPB factor
   6 XFAC_ 1   0.21650600  XFAC factor
   6 ALPB_ 6   2.61371300  ALPB factor
   6 XFAC_ 6   0.81351000  XFAC factor


          ONE-ELECTRON MATRIX FROM HCORE


               S  C  1   PX  C  1   PY  C  1   PZ  C  1    S  C  2   PX  C  2
 ------------------------------------------------------------------------------
  S  C    1-126.053613
 PX  C    1  -8.601597-116.251005
 PY  C    1  -4.549446  -1.479356-114.236442
 PZ  C    1   0.000000  -0.000000   0.000000-111.818542
  S  C    2  -3.558883  -4.039581   0.000000   0.000000-131.854930
 PX  C    2   4.039581   2.473471   0.000000   0.000000   6.183926-121.478961
 PY  C    2   0.000000   0.000000  -1.509709   0.000000  -4.476429   1.905584
 PZ  C    2   0.000000   0.000000   0.000000  -1.509709  -0.000000  -0.000000
  S  C    3  -3.558883  -2.273533  -3.339051   0.000000  -4.219779   2.113452
 PX  C    3   2.273533  -0.247998   1.853026   0.000000  -2.113452  -0.854532
 PY  C    3   3.339051   1.853026   1.211760   0.000000   3.995885  -1.762739
 PZ  C    3   0.000000   0.000000   0.000000  -1.509709   0.000000   0.000000
  S  H    4  -0.494926  -0.625496   0.145252  -0.000000  -5.332322  -3.291592
  S  H    5  -0.494926  -0.231975  -0.598774   0.000000  -0.592469   0.185924


              PY  C  2   PZ  C  2    S  C  3   PX  C  3   PY  C  3   PZ  C  3
 ------------------------------------------------------------------------------
 PY  C    2-120.080661
 PZ  C    2   0.000000-116.887610
  S  C    3  -3.995885   0.000000-131.854930
 PX  C    3  -1.762739   0.000000  -0.219741-118.750582
 PY  C    3   1.545938   0.000000   7.630929   0.047853-122.809040
 PZ  C    3   0.000000  -1.786858   0.000000  -0.000000   0.000000-116.887610
  S  H    4   1.992600  -0.000000  -0.592469  -0.494538   0.561658  -0.000000
  S  H    5  -0.724886   0.000000  -5.332322  -0.205504  -3.842239   0.000000


               S  H  4    S  H  5
 ------------------------------
  S  H    4 -99.388154
  S  H    5  -0.121526 -99.388154


          TWO-ELECTRON MATRIX IN HCORE

 13.3355  0.0000 11.5281  0.0000  0.0000 11.5281  0.0000  0.0000  0.0000 11.5281
  0.0000  0.7173  0.0000  0.0000  0.0000  0.0000  0.0000  0.0000  0.0000  0.0000
 11.5281  0.0000 10.7783  0.0000  0.0000  9.4862  0.0000  0.0000  0.0000  9.4862
  0.0000  0.0000  0.0000  0.7173  0.0000  0.0000  0.0000  0.0000  0.0000  0.0000
  0.0000  0.0000  0.0000  0.0000  0.6461  0.0000  0.0000  0.0000  0.0000  0.0000
 11.5281  0.0000  9.4862  0.0000  0.0000 10.7783  0.0000  0.0000  0.0000  9.4862
  0.0000  0.0000  0.0000  0.0000  0.0000  0.0000  0.7173  0.0000  0.0000  0.0000
  0.0000  0.0000  0.0000  0.0000  0.0000  0.0000  0.0000  0.6461  0.0000  0.0000
  0.0000  0.0000  0.0000  0.0000  0.0000  0.0000  0.0000  0.0000  0.6461  0.0000
 11.5281  0.0000  9.4862  0.0000  0.0000  9.4862  0.0000  0.0000  0.0000 10.7783
  7.9944  1.2206  8.4124  0.0000  0.0000  7.6379  0.0000  0.0000  0.0000  7.6379
 -1.2206 -0.1303 -1.1590  0.0000  0.0000 -1.0614  0.0000  0.0000  0.0000 -1.0614
  8.4124  1.1590  8.5568  0.0000  0.0000  7.8965  0.0000  0.0000  0.0000  7.8965
  0.0000  0.0000  0.0000  0.2608  0.1571  0.0000  0.0000  0.0000  0.0000  0.0000
  0.0000  0.0000  0.0000 -0.1571 -0.1595  0.0000  0.0000  0.0000  0.0000  0.0000
  7.6379  1.0614  7.8965  0.0000  0.0000  7.3931  0.0000  0.0000  0.0000  7.3281
  0.0000  0.0000  0.0000  0.0000  0.0000  0.0000  0.2608  0.1571  0.0000  0.0000
  0.0000  0.0000  0.0000  0.0000  0.0000  0.0000 -0.1571 -0.1595  0.0000  0.0000
  0.0000  0.0000  0.0000  0.0000  0.0000  0.0000  0.0000  0.0000  0.0325  0.0000
  7.6379  1.0614  7.8965  0.0000  0.0000  7.3281  0.0000  0.0000  0.0000  7.3931
 13.3355  0.0000 11.5281  0.0000  0.0000 11.5281  0.0000  0.0000  0.0000 11.5281
  0.0000  0.7173  0.0000  0.0000  0.0000  0.0000  0.0000  0.0000  0.0000  0.0000
 11.5281  0.0000 10.7783  0.0000  0.0000  9.4862  0.0000  0.0000  0.0000  9.4862
  0.0000  0.0000  0.0000  0.7173  0.0000  0.0000  0.0000  0.0000  0.0000  0.0000
  0.0000  0.0000  0.0000  0.0000  0.6461  0.0000  0.0000  0.0000  0.0000  0.0000
 11.5281  0.0000  9.4862  0.0000  0.0000 10.7783  0.0000  0.0000  0.0000  9.4862
  0.0000  0.0000  0.0000  0.0000  0.0000  0.0000  0.7173  0.0000  0.0000  0.0000
  0.0000  0.0000  0.0000  0.0000  0.0000  0.0000  0.0000  0.6461  0.0000  0.0000
  0.0000  0.0000  0.0000  0.0000  0.0000  0.0000  0.0000  0.0000  0.6461  0.0000
 11.5281  0.0000  9.4862  0.0000  0.0000  9.4862  0.0000  0.0000  0.0000 10.7783
  7.9944  0.6870  7.8833  1.0089  0.3603  8.1671  0.0000  0.0000  0.0000  7.6379
 -0.6870  0.1369 -0.4939 -0.1820  0.0220 -0.7558  0.0000  0.0000  0.0000 -0.5974
  7.8833  0.4939  7.5897  0.9852  0.2029  8.0686  0.0000  0.0000  0.0000  7.5081
 -1.0089 -0.1820 -0.9852 -0.0064 -0.0700 -0.8502  0.0000  0.0000  0.0000 -0.8773
  0.3603 -0.0220  0.2029  0.0700  0.0125  0.3385  0.0000  0.0000  0.0000  0.2644
  8.1671  0.7558  8.0686  0.8502  0.3385  8.0161  0.0000  0.0000  0.0000  7.7164
  0.0000  0.0000  0.0000  0.0000  0.0000  0.0000  0.2608  0.0884  0.1299  0.0000
  0.0000  0.0000  0.0000  0.0000  0.0000  0.0000 -0.0884 -0.0283 -0.0893  0.0000
  0.0000  0.0000  0.0000  0.0000  0.0000  0.0000 -0.1299 -0.0893 -0.0987  0.0000
  7.6379  0.5974  7.5081  0.8773  0.2644  7.7164  0.0000  0.0000  0.0000  7.3931
  8.3369 -0.5953  8.1132  1.1256 -0.3416  8.5784  0.0000  0.0000  0.0000  7.9325
  0.5953  0.2006  0.3892  0.1630  0.0747  0.6661  0.0000  0.0000  0.0000  0.5115
  8.1132 -0.3892  7.7679  1.0488 -0.1371  8.3187  0.0000  0.0000  0.0000  7.7139
 -1.1256  0.1630 -1.0488 -0.0214  0.0718 -0.9464  0.0000  0.0000  0.0000 -0.9671
 -0.3416 -0.0747 -0.1371 -0.0718 -0.0360 -0.3360  0.0000  0.0000  0.0000 -0.2427
  8.5784 -0.6661  8.3187  0.9464 -0.3360  8.4122  0.0000  0.0000  0.0000  8.0443
  0.0000  0.0000  0.0000  0.0000  0.0000  0.0000  0.2869 -0.0828  0.1565  0.0000
  0.0000  0.0000  0.0000  0.0000  0.0000  0.0000  0.0828 -0.0092  0.0914  0.0000
  0.0000  0.0000  0.0000  0.0000  0.0000  0.0000 -0.1565  0.0914 -0.1337  0.0000
  7.9325 -0.5115  7.7139  0.9671 -0.2427  8.0443  0.0000  0.0000  0.0000  7.6638
 13.3355  0.0000 11.5281  0.0000  0.0000 11.5281  0.0000  0.0000  0.0000 11.5281
  0.0000  0.7173  0.0000  0.0000  0.0000  0.0000  0.0000  0.0000  0.0000  0.0000
 11.5281  0.0000 10.7783  0.0000  0.0000  9.4862  0.0000  0.0000  0.0000  9.4862
  0.0000  0.0000  0.0000  0.7173  0.0000  0.0000  0.0000  0.0000  0.0000  0.0000
  0.0000  0.0000  0.0000  0.0000  0.6461  0.0000  0.0000  0.0000  0.0000  0.0000
 11.5281  0.0000  9.4862  0.0000  0.0000 10.7783  0.0000  0.0000  0.0000  9.4862
  0.0000  0.0000  0.0000  0.0000  0.0000  0.0000  0.7173  0.0000  0.0000  0.0000
  0.0000  0.0000  0.0000  0.0000  0.0000  0.0000  0.0000  0.6461  0.0000  0.0000
  0.0000  0.0000  0.0000  0.0000  0.0000  0.0000  0.0000  0.0000  0.6461  0.0000
 11.5281  0.0000  9.4862  0.0000  0.0000  9.4862  0.0000  0.0000  0.0000 10.7783
  5.5045  0.7086  5.6990 -0.1645 -0.0721  5.4053  0.0000  0.0000 -0.0000  5.3885
  9.7575  1.2703  9.8612 -0.7690 -0.4531  9.3870  0.0000  0.0000 -0.0000  9.1126
  5.6828  0.5070  5.7112 -0.5758 -0.1772  5.7564  0.0000  0.0000 -0.0000  5.5552
 14.4487  5.5045  0.2628  5.4312  0.6783  0.1102  5.6730 -0.0000 -0.0000 -0.0000
  5.3885  5.6828 -0.1906  5.5772  0.7431 -0.0860  5.8903 -0.0000  0.0000 -0.0000
  5.5552  9.7575  0.0793  9.1156  1.4829  0.0546 10.1326 -0.0000 -0.0000 -0.0000
  9.1126  4.3618 14.4487
 CYCLE:     3 TIME:   0.004 TIME LEFT:  2.00D  GRAD.:     8.949 HEAT:  126.7588
 
 PARAMETER VALUES USED IN THE CALCULATION
 
  NI    TYPE        VALUE     UNIT
 
 
   1  USS     -11.24695800  EV        ONE-CENTER ENERGY FOR S
   1  ZS        1.26864100  AU        ORBITAL EXPONENT  FOR S
   1  BETAS    -8.35298400  EV        BETA PARAMETER    FOR S
   1  GSS      14.44868600  EV        ONE-CENTER INTEGRAL (SS,SS)
   1  PO1       0.94165599  BOHR      KLOPMAN-OHNO TERM, SS, L=0
   1  PO7       0.94165599  BOHR      KLOPMAN-OHNO TERM, PP, L=0
   1  PO9       0.94165599  BOHR      KLOPMAN-OHNO TERM, CORE
   1  CORE      1.00000000  E         CORE CHARGE
   1  EHEAT    52.10200000  KCAL/MOL  HEAT OF FORMATION OF THE ATOM (EXP)
   1  EISOL   -11.24695800  EV        TOTAL ENERGY OF THE ATOM (CALC)
   1  FN11      0.02418400  CORE-CORE VDW MULTIPLIER 1
   1  FN21      3.05595300  CORE-CORE VDW EXPONENT 1
   1  FN31      1.78601100  CORE-CORE VDW POSITION 1
   1 ALPB_ 1   3.54094200  ALPB factor
   1 XFAC_ 1   2.24358700  XFAC factor
   1 ALPB_ 6   1.02780600  ALPB factor
   1 XFAC_ 6   0.21650600  XFAC factor
 
   6  USS     -51.08965300  EV        ONE-CENTER ENERGY FOR S
   6  UPP     -39.93792000  EV        ONE-CENTER ENERGY FOR P
   6  ZS        2.04755800  AU        ORBITAL EXPONENT  FOR S
   6  ZP        1.70284100  AU        ORBITAL EXPONENT  FOR P
   6  BETAS   -15.38523600  EV        BETA PARAMETER    FOR S
   6  BETAP    -7.47192900  EV        BETA PARAMETER    FOR P
   6  GSS      13.33551900  EV        ONE-CENTER INTEGRAL (SS,SS)
   6  GPP      10.77832600  EV        ONE-CENTER INTEGRAL (PP,PP)
   6  GSP      11.52813400  EV        ONE-CENTER INTEGRAL (SS,PP)
   6  GP2       9.48621200  EV        ONE-CENTER INTEGRAL (PP*,PP*)
   6  HSP       0.71732200  EV        ONE-CENTER INTEGRAL (SP,SP)
   6  DD2       0.75356425  BOHR      CHARGE SEPARATION, SP, L=1
   6  DD3       1.01715357  BOHR      CHARGE SEPARATION, PP, L=2
   6   =        0.71923619  BOHR      USING ORIGINAL MNDO PAPER FORMULA
   6  PO1       1.02025963  BOHR      KLOPMAN-OHNO TERM, SS, L=0
   6  PO2       1.29184422  BOHR      KLOPMAN-OHNO TERM, SP, L=1
   6  PO3       0.76267645  BOHR      KLOPMAN-OHNO TERM, PP, L=2
   6  PO7       1.02025963  BOHR      KLOPMAN-OHNO TERM, PP, L=0
   6  PO9       1.02025963  BOHR      KLOPMAN-OHNO TERM, CORE
   6  CORE      4.00000000  E         CORE CHARGE
   6  EHEAT   170.89000000  KCAL/MOL  HEAT OF FORMATION OF THE ATOM (EXP)
   6  EISOL  -115.20158000  EV        TOTAL ENERGY OF THE ATOM (CALC)
   6  FN11      0.04630200  CORE-CORE VDW MULTIPLIER 1
   6  FN21      2.10020600  CORE-CORE VDW EXPONENT 1
   6  FN31      1.33395900  CORE-CORE VDW POSITION 1
   6 ALPB_ 1   1.02780600  ALPB factor
   6 XFAC_ 1   0.21650600  XFAC factor
   6 ALPB_ 6   2.61371300  ALPB factor
   6 XFAC_ 6   0.81351000  XFAC factor


          ONE-ELECTRON MATRIX FROM HCORE


               S  C  1   PX  C  1   PY  C  1   PZ  C  1    S  C  2   PX  C  2
 ------------------------------------------------------------------------------
  S  C    1-126.144125
 PX  C    1  -8.601549-116.330019
 PY  C    1  -4.566608  -1.481148-114.326515
 PZ  C    1   0.000000  -0.000000   0.000000-111.895738
  S  C    2  -3.583817  -4.058710   0.000000   0.000000-131.879950
 PX  C    2   4.058710   2.475050   0.000000   0.000000   6.188269-121.524610
 PY  C    2   0.000000   0.000000  -1.520109   0.000000  -4.488261   1.900798
 PZ  C    2   0.000000   0.000000   0.000000  -1.520109  -0.000000  -0.000000
  S  C    3  -3.583817  -2.273821  -3.361974   0.000000  -4.216371   2.118585
 PX  C    3   2.273821  -0.266187   1.853994   0.000000  -2.118585  -0.847868
 PY  C    3   3.361974   1.853994   1.221128   0.000000   3.990514  -1.765949
 PZ  C    3   0.000000   0.000000   0.000000  -1.520109   0.000000   0.000000
  S  H    4  -0.490728  -0.621558   0.141593  -0.000000  -5.302162  -3.306360
  S  H    5  -0.490728  -0.230930  -0.594183   0.000000  -0.591273   0.183042


              PY  C  2   PZ  C  2    S  C  3   PX  C  3   PY  C  3   PZ  C  3
 ------------------------------------------------------------------------------
 PY  C    2-120.087685
 PZ  C    2   0.000000-116.910459
  S  C    3  -3.990514   0.000000-131.879950
 PX  C    3  -1.765949   0.000000  -0.250917-118.774509
 PY  C    3   1.540878   0.000000   7.640432   0.040808-122.837786
 PZ  C    3   0.000000  -1.785420   0.000000  -0.000000   0.000000-116.910459
  S  H    4   1.946859  -0.000000  -0.591273  -0.497417   0.557396  -0.000000
  S  H    5  -0.724299   0.000000  -5.302162  -0.239677  -3.829469   0.000000


               S  H  4    S  H  5
 ------------------------------
  S  H    4 -99.274566
  S  H    5  -0.122450 -99.274566


          TWO-ELECTRON MATRIX IN HCORE

 13.3355  0.0000 11.5281  0.0000  0.0000 11.5281  0.0000  0.0000  0.0000 11.5281
  0.0000  0.7173  0.0000  0.0000  0.0000  0.0000  0.0000  0.0000  0.0000  0.0000
 11.5281  0.0000 10.7783  0.0000  0.0000  9.4862  0.0000  0.0000  0.0000  9.4862
  0.0000  0.0000  0.0000  0.7173  0.0000  0.0000  0.0000  0.0000  0.0000  0.0000
  0.0000  0.0000  0.0000  0.0000  0.6461  0.0000  0.0000  0.0000  0.0000  0.0000
 11.5281  0.0000  9.4862  0.0000  0.0000 10.7783  0.0000  0.0000  0.0000  9.4862
  0.0000  0.0000  0.0000  0.0000  0.0000  0.0000  0.7173  0.0000  0.0000  0.0000
  0.0000  0.0000  0.0000  0.0000  0.0000  0.0000  0.0000  0.6461  0.0000  0.0000
  0.0000  0.0000  0.0000  0.0000  0.0000  0.0000  0.0000  0.0000  0.6461  0.0000
 11.5281  0.0000  9.4862  0.0000  0.0000  9.4862  0.0000  0.0000  0.0000 10.7783
  8.0077  1.2228  8.4262  0.0000  0.0000  7.6495  0.0000  0.0000  0.0000  7.6495
 -1.2228 -0.1296 -1.1595  0.0000  0.0000 -1.0628  0.0000  0.0000  0.0000 -1.0628
  8.4262  1.1595  8.5671  0.0000  0.0000  7.9075  0.0000  0.0000  0.0000  7.9075
  0.0000  0.0000  0.0000  0.2618  0.1579  0.0000  0.0000  0.0000  0.0000  0.0000
  0.0000  0.0000  0.0000 -0.1579 -0.1604  0.0000  0.0000  0.0000  0.0000  0.0000
  7.6495  1.0628  7.9075  0.0000  0.0000  7.4037  0.0000  0.0000  0.0000  7.3382
  0.0000  0.0000  0.0000  0.0000  0.0000  0.0000  0.2618  0.1579  0.0000  0.0000
  0.0000  0.0000  0.0000  0.0000  0.0000  0.0000 -0.1579 -0.1604  0.0000  0.0000
  0.0000  0.0000  0.0000  0.0000  0.0000  0.0000  0.0000  0.0000  0.0328  0.0000
  7.6495  1.0628  7.9075  0.0000  0.0000  7.3382  0.0000  0.0000  0.0000  7.4037
 13.3355  0.0000 11.5281  0.0000  0.0000 11.5281  0.0000  0.0000  0.0000 11.5281
  0.0000  0.7173  0.0000  0.0000  0.0000  0.0000  0.0000  0.0000  0.0000  0.0000
 11.5281  0.0000 10.7783  0.0000  0.0000  9.4862  0.0000  0.0000  0.0000  9.4862
  0.0000  0.0000  0.0000  0.7173  0.0000  0.0000  0.0000  0.0000  0.0000  0.0000
  0.0000  0.0000  0.0000  0.0000  0.6461  0.0000  0.0000  0.0000  0.0000  0.0000
 11.5281  0.0000  9.4862  0.0000  0.0000 10.7783  0.0000  0.0000  0.0000  9.4862
  0.0000  0.0000  0.0000  0.0000  0.0000  0.0000  0.7173  0.0000  0.0000  0.0000
  0.0000  0.0000  0.0000  0.0000  0.0000  0.0000  0.0000  0.6461  0.0000  0.0000
  0.0000  0.0000  0.0000  0.0000  0.0000  0.0000  0.0000  0.0000  0.6461  0.0000
 11.5281  0.0000  9.4862  0.0000  0.0000  9.4862  0.0000  0.0000  0.0000 10.7783
  8.0077  0.6850  7.8933  1.0129  0.3604  8.1824  0.0000  0.0000  0.0000  7.6495
 -0.6850  0.1390 -0.4910 -0.1816  0.0236 -0.7540  0.0000  0.0000  0.0000 -0.5954
  7.8933  0.4910  7.5971  0.9876  0.2010  8.0793  0.0000  0.0000  0.0000  7.5169
 -1.0129 -0.1816 -0.9876 -0.0067 -0.0701 -0.8532  0.0000  0.0000  0.0000 -0.8804
  0.3604 -0.0236  0.2010  0.0701  0.0113  0.3388  0.0000  0.0000  0.0000  0.2642
  8.1824  0.7540  8.0793  0.8532  0.3388  8.0302  0.0000  0.0000  0.0000  7.7289
  0.0000  0.0000  0.0000  0.0000  0.0000  0.0000  0.2618  0.0885  0.1308  0.0000
  0.0000  0.0000  0.0000  0.0000  0.0000  0.0000 -0.0885 -0.0279 -0.0897  0.0000
  0.0000  0.0000  0.0000  0.0000  0.0000  0.0000 -0.1308 -0.0897 -0.0998  0.0000
  7.6495  0.5954  7.5169  0.8804  0.2642  7.7289  0.0000  0.0000  0.0000  7.4037
  8.3352 -0.5970  8.1128  1.1244 -0.3422  8.5757  0.0000  0.0000  0.0000  7.9311
  0.5970  0.2000  0.3907  0.1634  0.0741  0.6677  0.0000  0.0000  0.0000  0.5129
  8.1128 -0.3907  7.7675  1.0483 -0.1379  8.3180  0.0000  0.0000  0.0000  7.7134
 -1.1244  0.1634 -1.0483 -0.0210  0.0718 -0.9452  0.0000  0.0000  0.0000 -0.9661
 -0.3422 -0.0741 -0.1379 -0.0718 -0.0353 -0.3363  0.0000  0.0000  0.0000 -0.2431
  8.5757 -0.6677  8.3180  0.9452 -0.3363  8.4089  0.0000  0.0000  0.0000  8.0423
  0.0000  0.0000  0.0000  0.0000  0.0000  0.0000  0.2867 -0.0830  0.1563  0.0000
  0.0000  0.0000  0.0000  0.0000  0.0000  0.0000  0.0830 -0.0095  0.0915  0.0000
  0.0000  0.0000  0.0000  0.0000  0.0000  0.0000 -0.1563  0.0915 -0.1334  0.0000
  7.9311 -0.5129  7.7134  0.9661 -0.2431  8.0423  0.0000  0.0000  0.0000  7.6624
 13.3355  0.0000 11.5281  0.0000  0.0000 11.5281  0.0000  0.0000  0.0000 11.5281
  0.0000  0.7173  0.0000  0.0000  0.0000  0.0000  0.0000  0.0000  0.0000  0.0000
 11.5281  0.0000 10.7783  0.0000  0.0000  9.4862  0.0000  0.0000  0.0000  9.4862
  0.0000  0.0000  0.0000  0.7173  0.0000  0.0000  0.0000  0.0000  0.0000  0.0000
  0.0000  0.0000  0.0000  0.0000  0.6461  0.0000  0.0000  0.0000  0.0000  0.0000
 11.5281  0.0000  9.4862  0.0000  0.0000 10.7783  0.0000  0.0000  0.0000  9.4862
  0.0000  0.0000  0.0000  0.0000  0.0000  0.0000  0.7173  0.0000  0.0000  0.0000
  0.0000  0.0000  0.0000  0.0000  0.0000  0.0000  0.0000  0.6461  0.0000  0.0000
  0.0000  0.0000  0.0000  0.0000  0.0000  0.0000  0.0000  0.0000  0.6461  0.0000
 11.5281  0.0000  9.4862  0.0000  0.0000  9.4862  0.0000  0.0000  0.0000 10.7783
  5.4964  0.7075  5.6906 -0.1612 -0.0706  5.3970  0.0000  0.0000 -0.0000  5.3809
  9.7381  1.2785  9.8563 -0.7528 -0.4471  9.3603  0.0000  0.0000 -0.0000  9.0970
  5.6807  0.5105  5.7114 -0.5720 -0.1773  5.7519  0.0000  0.0000 -0.0000  5.5533
 14.4487  5.4964  0.2629  5.4237  0.6764  0.1100  5.6640 -0.0000 -0.0000 -0.0000
  5.3809  5.6807 -0.1878  5.5747  0.7433 -0.0848  5.8887 -0.0000  0.0000 -0.0000
  5.5533  9.7381  0.0927  9.1010  1.4808  0.0637 10.1155 -0.0000 -0.0000 -0.0000
  9.0970  4.3669 14.4487
 CYCLE:     4 TIME:   0.004 TIME LEFT:  2.00D  GRAD.:     5.725 HEAT:  126.6750
 
 PARAMETER VALUES USED IN THE CALCULATION
 
  NI    TYPE        VALUE     UNIT
 
 
   1  USS     -11.24695800  EV        ONE-CENTER ENERGY FOR S
   1  ZS        1.26864100  AU        ORBITAL EXPONENT  FOR S
   1  BETAS    -8.35298400  EV        BETA PARAMETER    FOR S
   1  GSS      14.44868600  EV        ONE-CENTER INTEGRAL (SS,SS)
   1  PO1       0.94165599  BOHR      KLOPMAN-OHNO TERM, SS, L=0
   1  PO7       0.94165599  BOHR      KLOPMAN-OHNO TERM, PP, L=0
   1  PO9       0.94165599  BOHR      KLOPMAN-OHNO TERM, CORE
   1  CORE      1.00000000  E         CORE CHARGE
   1  EHEAT    52.10200000  KCAL/MOL  HEAT OF FORMATION OF THE ATOM (EXP)
   1  EISOL   -11.24695800  EV        TOTAL ENERGY OF THE ATOM (CALC)
   1  FN11      0.02418400  CORE-CORE VDW MULTIPLIER 1
   1  FN21      3.05595300  CORE-CORE VDW EXPONENT 1
   1  FN31      1.78601100  CORE-CORE VDW POSITION 1
   1 ALPB_ 1   3.54094200  ALPB factor
   1 XFAC_ 1   2.24358700  XFAC factor
   1 ALPB_ 6   1.02780600  ALPB factor
   1 XFAC_ 6   0.21650600  XFAC factor
 
   6  USS     -51.08965300  EV        ONE-CENTER ENERGY FOR S
   6  UPP     -39.93792000  EV        ONE-CENTER ENERGY FOR P
   6  ZS        2.04755800  AU        ORBITAL EXPONENT  FOR S
   6  ZP        1.70284100  AU        ORBITAL EXPONENT  FOR P
   6  BETAS   -15.38523600  EV        BETA PARAMETER    FOR S
   6  BETAP    -7.47192900  EV        BETA PARAMETER    FOR P
   6  GSS      13.33551900  EV        ONE-CENTER INTEGRAL (SS,SS)
   6  GPP      10.77832600  EV        ONE-CENTER INTEGRAL (PP,PP)
   6  GSP      11.52813400  EV        ONE-CENTER INTEGRAL (SS,PP)
   6  GP2       9.48621200  EV        ONE-CENTER INTEGRAL (PP*,PP*)
   6  HSP       0.71732200  EV        ONE-CENTER INTEGRAL (SP,SP)
   6  DD2       0.75356425  BOHR      CHARGE SEPARATION, SP, L=1
   6  DD3       1.01715357  BOHR      CHARGE SEPARATION, PP, L=2
   6   =        0.71923619  BOHR      USING ORIGINAL MNDO PAPER FORMULA
   6  PO1       1.02025963  BOHR      KLOPMAN-OHNO TERM, SS, L=0
   6  PO2       1.29184422  BOHR      KLOPMAN-OHNO TERM, SP, L=1
   6  PO3       0.76267645  BOHR      KLOPMAN-OHNO TERM, PP, L=2
   6  PO7       1.02025963  BOHR      KLOPMAN-OHNO TERM, PP, L=0
   6  PO9       1.02025963  BOHR      KLOPMAN-OHNO TERM, CORE
   6  CORE      4.00000000  E         CORE CHARGE
   6  EHEAT   170.89000000  KCAL/MOL  HEAT OF FORMATION OF THE ATOM (EXP)
   6  EISOL  -115.20158000  EV        TOTAL ENERGY OF THE ATOM (CALC)
   6  FN11      0.04630200  CORE-CORE VDW MULTIPLIER 1
   6  FN21      2.10020600  CORE-CORE VDW EXPONENT 1
   6  FN31      1.33395900  CORE-CORE VDW POSITION 1
   6 ALPB_ 1   1.02780600  ALPB factor
   6 XFAC_ 1   0.21650600  XFAC factor
   6 ALPB_ 6   2.61371300  ALPB factor
   6 XFAC_ 6   0.81351000  XFAC factor


          ONE-ELECTRON MATRIX FROM HCORE


               S  C  1   PX  C  1   PY  C  1   PZ  C  1    S  C  2   PX  C  2
 ------------------------------------------------------------------------------
  S  C    1-126.169461
 PX  C    1  -8.595160-116.345284
 PY  C    1  -4.583267  -1.483107-114.354812
 PZ  C    1  -0.000000  -0.000000   0.000000-111.915495
  S  C    2  -3.596802  -4.068641   0.000000   0.000000-131.862020
 PX  C    2   4.068641   2.475827   0.000000   0.000000   6.174566-121.539218
 PY  C    2   0.000000   0.000000  -1.525526   0.000000  -4.513729   1.886385
 PZ  C    2   0.000000   0.000000   0.000000  -1.525526  -0.000000  -0.000000
  S  C    3  -3.596802  -2.267114  -3.378466   0.000000  -4.195542   2.119087
 PX  C    3   2.267114  -0.283145   1.851403   0.000000  -2.119087  -0.834383
 PY  C    3   3.378466   1.851403   1.233446   0.000000   3.973997  -1.767037
 PZ  C    3   0.000000   0.000000   0.000000  -1.525526   0.000000   0.000000
  S  H    4  -0.483011  -0.614551   0.133566  -0.000000  -5.287119  -3.349059
  S  H    5  -0.483011  -0.231529  -0.584729   0.000000  -0.594703   0.177990


              PY  C  2   PZ  C  2    S  C  3   PX  C  3   PY  C  3   PZ  C  3
 ------------------------------------------------------------------------------
 PY  C    2-120.044421
 PZ  C    2   0.000000-116.896422
  S  C    3  -3.973997   0.000000-131.862020
 PX  C    3  -1.767037   0.000000  -0.307483-118.762901
 PY  C    3   1.537151   0.000000   7.642282   0.023343-122.820738
 PZ  C    3   0.000000  -1.776635   0.000000  -0.000000   0.000000-116.896422
  S  H    4   1.861338  -0.000000  -0.594703  -0.506437   0.554195  -0.000000
  S  H    5  -0.729335   0.000000  -5.287119  -0.320557  -3.818118   0.000000


               S  H  4    S  H  5
 ------------------------------
  S  H    4 -99.224050
  S  H    5  -0.127029 -99.224050


          TWO-ELECTRON MATRIX IN HCORE

 13.3355  0.0000 11.5281  0.0000  0.0000 11.5281  0.0000  0.0000  0.0000 11.5281
  0.0000  0.7173  0.0000  0.0000  0.0000  0.0000  0.0000  0.0000  0.0000  0.0000
 11.5281  0.0000 10.7783  0.0000  0.0000  9.4862  0.0000  0.0000  0.0000  9.4862
  0.0000  0.0000  0.0000  0.7173  0.0000  0.0000  0.0000  0.0000  0.0000  0.0000
  0.0000  0.0000  0.0000  0.0000  0.6461  0.0000  0.0000  0.0000  0.0000  0.0000
 11.5281  0.0000  9.4862  0.0000  0.0000 10.7783  0.0000  0.0000  0.0000  9.4862
  0.0000  0.0000  0.0000  0.0000  0.0000  0.0000  0.7173  0.0000  0.0000  0.0000
  0.0000  0.0000  0.0000  0.0000  0.0000  0.0000  0.0000  0.6461  0.0000  0.0000
  0.0000  0.0000  0.0000  0.0000  0.0000  0.0000  0.0000  0.0000  0.6461  0.0000
 11.5281  0.0000  9.4862  0.0000  0.0000  9.4862  0.0000  0.0000  0.0000 10.7783
  8.0146  1.2239  8.4333  0.0000  0.0000  7.6555  0.0000  0.0000  0.0000  7.6555
 -1.2239 -0.1292 -1.1597  0.0000  0.0000 -1.0635  0.0000  0.0000  0.0000 -1.0635
  8.4333  1.1597  8.5724  0.0000  0.0000  7.9133  0.0000  0.0000  0.0000  7.9133
  0.0000  0.0000  0.0000  0.2623  0.1583  0.0000  0.0000  0.0000  0.0000  0.0000
  0.0000  0.0000  0.0000 -0.1583 -0.1609  0.0000  0.0000  0.0000  0.0000  0.0000
  7.6555  1.0635  7.9133  0.0000  0.0000  7.4093  0.0000  0.0000  0.0000  7.3435
  0.0000  0.0000  0.0000  0.0000  0.0000  0.0000  0.2623  0.1583  0.0000  0.0000
  0.0000  0.0000  0.0000  0.0000  0.0000  0.0000 -0.1583 -0.1609  0.0000  0.0000
  0.0000  0.0000  0.0000  0.0000  0.0000  0.0000  0.0000  0.0000  0.0329  0.0000
  7.6555  1.0635  7.9133  0.0000  0.0000  7.3435  0.0000  0.0000  0.0000  7.4093
 13.3355  0.0000 11.5281  0.0000  0.0000 11.5281  0.0000  0.0000  0.0000 11.5281
  0.0000  0.7173  0.0000  0.0000  0.0000  0.0000  0.0000  0.0000  0.0000  0.0000
 11.5281  0.0000 10.7783  0.0000  0.0000  9.4862  0.0000  0.0000  0.0000  9.4862
  0.0000  0.0000  0.0000  0.7173  0.0000  0.0000  0.0000  0.0000  0.0000  0.0000
  0.0000  0.0000  0.0000  0.0000  0.6461  0.0000  0.0000  0.0000  0.0000  0.0000
 11.5281  0.0000  9.4862  0.0000  0.0000 10.7783  0.0000  0.0000  0.0000  9.4862
  0.0000  0.0000  0.0000  0.0000  0.0000  0.0000  0.7173  0.0000  0.0000  0.0000
  0.0000  0.0000  0.0000  0.0000  0.0000  0.0000  0.0000  0.6461  0.0000  0.0000
  0.0000  0.0000  0.0000  0.0000  0.0000  0.0000  0.0000  0.0000  0.6461  0.0000
 11.5281  0.0000  9.4862  0.0000  0.0000  9.4862  0.0000  0.0000  0.0000 10.7783
  8.0146  0.6820  7.8970  1.0163  0.3599  8.1918  0.0000  0.0000  0.0000  7.6555
 -0.6820  0.1408 -0.4876 -0.1811  0.0250 -0.7512  0.0000  0.0000  0.0000 -0.5926
  7.8970  0.4876  7.5994  0.9895  0.1991  8.0843  0.0000  0.0000  0.0000  7.5204
 -1.0163 -0.1811 -0.9895 -0.0076 -0.0704 -0.8565  0.0000  0.0000  0.0000 -0.8831
  0.3599 -0.0250  0.1991  0.0704  0.0101  0.3391  0.0000  0.0000  0.0000  0.2636
  8.1918  0.7512  8.0843  0.8565  0.3391  8.0403  0.0000  0.0000  0.0000  7.7364
  0.0000  0.0000  0.0000  0.0000  0.0000  0.0000  0.2623  0.0882  0.1315  0.0000
  0.0000  0.0000  0.0000  0.0000  0.0000  0.0000 -0.0882 -0.0273 -0.0897  0.0000
  0.0000  0.0000  0.0000  0.0000  0.0000  0.0000 -0.1315 -0.0897 -0.1007  0.0000
  7.6555  0.5926  7.5204  0.8831  0.2636  7.7364  0.0000  0.0000  0.0000  7.4093
  8.3247 -0.5983  8.1047  1.1220 -0.3425  8.5644  0.0000  0.0000  0.0000  7.9221
  0.5983  0.1986  0.3924  0.1637  0.0729  0.6692  0.0000  0.0000  0.0000  0.5143
  8.1047 -0.3924  7.7608  1.0470 -0.1392  8.3102  0.0000  0.0000  0.0000  7.7064
 -1.1220  0.1637 -1.0470 -0.0212  0.0720 -0.9438  0.0000  0.0000  0.0000 -0.9644
 -0.3425 -0.0729 -0.1392 -0.0720 -0.0342 -0.3365  0.0000  0.0000  0.0000 -0.2435
  8.5644 -0.6692  8.3102  0.9438 -0.3365  8.3992  0.0000  0.0000  0.0000  8.0332
  0.0000  0.0000  0.0000  0.0000  0.0000  0.0000  0.2859 -0.0829  0.1556  0.0000
  0.0000  0.0000  0.0000  0.0000  0.0000  0.0000  0.0829 -0.0099  0.0914  0.0000
  0.0000  0.0000  0.0000  0.0000  0.0000  0.0000 -0.1556  0.0914 -0.1326  0.0000
  7.9221 -0.5143  7.7064  0.9644 -0.2435  8.0332  0.0000  0.0000  0.0000  7.6542
 13.3355  0.0000 11.5281  0.0000  0.0000 11.5281  0.0000  0.0000  0.0000 11.5281
  0.0000  0.7173  0.0000  0.0000  0.0000  0.0000  0.0000  0.0000  0.0000  0.0000
 11.5281  0.0000 10.7783  0.0000  0.0000  9.4862  0.0000  0.0000  0.0000  9.4862
  0.0000  0.0000  0.0000  0.7173  0.0000  0.0000  0.0000  0.0000  0.0000  0.0000
  0.0000  0.0000  0.0000  0.0000  0.6461  0.0000  0.0000  0.0000  0.0000  0.0000
 11.5281  0.0000  9.4862  0.0000  0.0000 10.7783  0.0000  0.0000  0.0000  9.4862
  0.0000  0.0000  0.0000  0.0000  0.0000  0.0000  0.7173  0.0000  0.0000  0.0000
  0.0000  0.0000  0.0000  0.0000  0.0000  0.0000  0.0000  0.6461  0.0000  0.0000
  0.0000  0.0000  0.0000  0.0000  0.0000  0.0000  0.0000  0.0000  0.6461  0.0000
 11.5281  0.0000  9.4862  0.0000  0.0000  9.4862  0.0000  0.0000  0.0000 10.7783
  5.4813  0.7058  5.6755 -0.1534 -0.0671  5.3813  0.0000  0.0000 -0.0000  5.3668
  9.7283  1.2963  9.8703 -0.7204 -0.4341  9.3305  0.0000  0.0000 -0.0000  9.0892
  5.6867  0.5181  5.7216 -0.5669 -0.1782  5.7538  0.0000  0.0000 -0.0000  5.5588
 14.4487  5.4813  0.2659  5.4106  0.6716  0.1107  5.6463 -0.0000 -0.0000 -0.0000
  5.3668  5.6867 -0.1821  5.5789  0.7461 -0.0824  5.8965 -0.0000  0.0000 -0.0000
  5.5588  9.7283  0.1241  9.0964  1.4778  0.0852 10.1043 -0.0000 -0.0000 -0.0000
  9.0892  4.3918 14.4487
 CYCLE:     5 TIME:   0.004 TIME LEFT:  2.00D  GRAD.:     3.234 HEAT:  126.6081
 
 PARAMETER VALUES USED IN THE CALCULATION
 
  NI    TYPE        VALUE     UNIT
 
 
   1  USS     -11.24695800  EV        ONE-CENTER ENERGY FOR S
   1  ZS        1.26864100  AU        ORBITAL EXPONENT  FOR S
   1  BETAS    -8.35298400  EV        BETA PARAMETER    FOR S
   1  GSS      14.44868600  EV        ONE-CENTER INTEGRAL (SS,SS)
   1  PO1       0.94165599  BOHR      KLOPMAN-OHNO TERM, SS, L=0
   1  PO7       0.94165599  BOHR      KLOPMAN-OHNO TERM, PP, L=0
   1  PO9       0.94165599  BOHR      KLOPMAN-OHNO TERM, CORE
   1  CORE      1.00000000  E         CORE CHARGE
   1  EHEAT    52.10200000  KCAL/MOL  HEAT OF FORMATION OF THE ATOM (EXP)
   1  EISOL   -11.24695800  EV        TOTAL ENERGY OF THE ATOM (CALC)
   1  FN11      0.02418400  CORE-CORE VDW MULTIPLIER 1
   1  FN21      3.05595300  CORE-CORE VDW EXPONENT 1
   1  FN31      1.78601100  CORE-CORE VDW POSITION 1
   1 ALPB_ 1   3.54094200  ALPB factor
   1 XFAC_ 1   2.24358700  XFAC factor
   1 ALPB_ 6   1.02780600  ALPB factor
   1 XFAC_ 6   0.21650600  XFAC factor
 
   6  USS     -51.08965300  EV        ONE-CENTER ENERGY FOR S
   6  UPP     -39.93792000  EV        ONE-CENTER ENERGY FOR P
   6  ZS        2.04755800  AU        ORBITAL EXPONENT  FOR S
   6  ZP        1.70284100  AU        ORBITAL EXPONENT  FOR P
   6  BETAS   -15.38523600  EV        BETA PARAMETER    FOR S
   6  BETAP    -7.47192900  EV        BETA PARAMETER    FOR P
   6  GSS      13.33551900  EV        ONE-CENTER INTEGRAL (SS,SS)
   6  GPP      10.77832600  EV        ONE-CENTER INTEGRAL (PP,PP)
   6  GSP      11.52813400  EV        ONE-CENTER INTEGRAL (SS,PP)
   6  GP2       9.48621200  EV        ONE-CENTER INTEGRAL (PP*,PP*)
   6  HSP       0.71732200  EV        ONE-CENTER INTEGRAL (SP,SP)
   6  DD2       0.75356425  BOHR      CHARGE SEPARATION, SP, L=1
   6  DD3       1.01715357  BOHR      CHARGE SEPARATION, PP, L=2
   6   =        0.71923619  BOHR      USING ORIGINAL MNDO PAPER FORMULA
   6  PO1       1.02025963  BOHR      KLOPMAN-OHNO TERM, SS, L=0
   6  PO2       1.29184422  BOHR      KLOPMAN-OHNO TERM, SP, L=1
   6  PO3       0.76267645  BOHR      KLOPMAN-OHNO TERM, PP, L=2
   6  PO7       1.02025963  BOHR      KLOPMAN-OHNO TERM, PP, L=0
   6  PO9       1.02025963  BOHR      KLOPMAN-OHNO TERM, CORE
   6  CORE      4.00000000  E         CORE CHARGE
   6  EHEAT   170.89000000  KCAL/MOL  HEAT OF FORMATION OF THE ATOM (EXP)
   6  EISOL  -115.20158000  EV        TOTAL ENERGY OF THE ATOM (CALC)
   6  FN11      0.04630200  CORE-CORE VDW MULTIPLIER 1
   6  FN21      2.10020600  CORE-CORE VDW EXPONENT 1
   6  FN31      1.33395900  CORE-CORE VDW POSITION 1
   6 ALPB_ 1   1.02780600  ALPB factor
   6 XFAC_ 1   0.21650600  XFAC factor
   6 ALPB_ 6   2.61371300  ALPB factor
   6 XFAC_ 6   0.81351000  XFAC factor


          ONE-ELECTRON MATRIX FROM HCORE


               S  C  1   PX  C  1   PY  C  1   PZ  C  1    S  C  2   PX  C  2
 ------------------------------------------------------------------------------
  S  C    1-126.158897
 PX  C    1  -8.592328-116.333343
 PY  C    1  -4.586118  -1.483215-114.346122
 PZ  C    1   0.000000  -0.000000   0.000000-111.906038
  S  C    2  -3.595354  -4.067534   0.000000   0.000000-131.849700
 PX  C    2   4.067534   2.475742   0.000000   0.000000   6.168420-121.534099
 PY  C    2   0.000000   0.000000  -1.524922   0.000000  -4.519877   1.882109
 PZ  C    2   0.000000   0.000000   0.000000  -1.524922  -0.000000  -0.000000
  S  C    3  -3.595354  -2.263828  -3.379337   0.000000  -4.186547   2.117732
 PX  C    3   2.263828  -0.285679   1.849884   0.000000  -2.117732  -0.829947
 PY  C    3   3.379337   1.849884   1.236499   0.000000   3.967680  -1.766563
 PZ  C    3   0.000000   0.000000   0.000000  -1.524922   0.000000   0.000000
  S  H    4  -0.481898  -0.613716   0.131555  -0.000000  -5.294893  -3.363465
  S  H    5  -0.481898  -0.232273  -0.583098   0.000000  -0.596947   0.177131


              PY  C  2   PZ  C  2    S  C  3   PX  C  3   PY  C  3   PZ  C  3
 ------------------------------------------------------------------------------
 PY  C    2-120.026224
 PZ  C    2   0.000000-116.885900
  S  C    3  -3.967680   0.000000-131.849700
 PX  C    3  -1.766563   0.000000  -0.322049-118.752749
 PY  C    3   1.536905   0.000000   7.640352   0.018874-122.807574
 PZ  C    3   0.000000  -1.772842   0.000000  -0.000000   0.000000-116.885900
  S  H    4   1.841019  -0.000000  -0.596947  -0.509576   0.554570  -0.000000
  S  H    5  -0.732011   0.000000  -5.294893  -0.342439  -3.819029   0.000000


               S  H  4    S  H  5
 ------------------------------
  S  H    4 -99.260534
  S  H    5  -0.128837 -99.260534


          TWO-ELECTRON MATRIX IN HCORE

 13.3355  0.0000 11.5281  0.0000  0.0000 11.5281  0.0000  0.0000  0.0000 11.5281
  0.0000  0.7173  0.0000  0.0000  0.0000  0.0000  0.0000  0.0000  0.0000  0.0000
 11.5281  0.0000 10.7783  0.0000  0.0000  9.4862  0.0000  0.0000  0.0000  9.4862
  0.0000  0.0000  0.0000  0.7173  0.0000  0.0000  0.0000  0.0000  0.0000  0.0000
  0.0000  0.0000  0.0000  0.0000  0.6461  0.0000  0.0000  0.0000  0.0000  0.0000
 11.5281  0.0000  9.4862  0.0000  0.0000 10.7783  0.0000  0.0000  0.0000  9.4862
  0.0000  0.0000  0.0000  0.0000  0.0000  0.0000  0.7173  0.0000  0.0000  0.0000
  0.0000  0.0000  0.0000  0.0000  0.0000  0.0000  0.0000  0.6461  0.0000  0.0000
  0.0000  0.0000  0.0000  0.0000  0.0000  0.0000  0.0000  0.0000  0.6461  0.0000
 11.5281  0.0000  9.4862  0.0000  0.0000  9.4862  0.0000  0.0000  0.0000 10.7783
  8.0139  1.2238  8.4325  0.0000  0.0000  7.6548  0.0000  0.0000  0.0000  7.6548
 -1.2238 -0.1292 -1.1597  0.0000  0.0000 -1.0634  0.0000  0.0000  0.0000 -1.0634
  8.4325  1.1597  8.5719  0.0000  0.0000  7.9126  0.0000  0.0000  0.0000  7.9126
  0.0000  0.0000  0.0000  0.2623  0.1583  0.0000  0.0000  0.0000  0.0000  0.0000
  0.0000  0.0000  0.0000 -0.1583 -0.1608  0.0000  0.0000  0.0000  0.0000  0.0000
  7.6548  1.0634  7.9126  0.0000  0.0000  7.4087  0.0000  0.0000  0.0000  7.3429
  0.0000  0.0000  0.0000  0.0000  0.0000  0.0000  0.2623  0.1583  0.0000  0.0000
  0.0000  0.0000  0.0000  0.0000  0.0000  0.0000 -0.1583 -0.1608  0.0000  0.0000
  0.0000  0.0000  0.0000  0.0000  0.0000  0.0000  0.0000  0.0000  0.0329  0.0000
  7.6548  1.0634  7.9126  0.0000  0.0000  7.3429  0.0000  0.0000  0.0000  7.4087
 13.3355  0.0000 11.5281  0.0000  0.0000 11.5281  0.0000  0.0000  0.0000 11.5281
  0.0000  0.7173  0.0000  0.0000  0.0000  0.0000  0.0000  0.0000  0.0000  0.0000
 11.5281  0.0000 10.7783  0.0000  0.0000  9.4862  0.0000  0.0000  0.0000  9.4862
  0.0000  0.0000  0.0000  0.7173  0.0000  0.0000  0.0000  0.0000  0.0000  0.0000
  0.0000  0.0000  0.0000  0.0000  0.6461  0.0000  0.0000  0.0000  0.0000  0.0000
 11.5281  0.0000  9.4862  0.0000  0.0000 10.7783  0.0000  0.0000  0.0000  9.4862
  0.0000  0.0000  0.0000  0.0000  0.0000  0.0000  0.7173  0.0000  0.0000  0.0000
  0.0000  0.0000  0.0000  0.0000  0.0000  0.0000  0.0000  0.6461  0.0000  0.0000
  0.0000  0.0000  0.0000  0.0000  0.0000  0.0000  0.0000  0.0000  0.6461  0.0000
 11.5281  0.0000  9.4862  0.0000  0.0000  9.4862  0.0000  0.0000  0.0000 10.7783
  8.0139  0.6811  7.8957  1.0167  0.3596  8.1916  0.0000  0.0000  0.0000  7.6548
 -0.6811  0.1410 -0.4869 -0.1810  0.0253 -0.7504  0.0000  0.0000  0.0000 -0.5919
  7.8957  0.4869  7.5982  0.9897  0.1987  8.0834  0.0000  0.0000  0.0000  7.5194
 -1.0167 -0.1810 -0.9897 -0.0079 -0.0705 -0.8572  0.0000  0.0000  0.0000 -0.8835
  0.3596 -0.0253  0.1987  0.0705  0.0099  0.3392  0.0000  0.0000  0.0000  0.2634
  8.1916  0.7504  8.0834  0.8572  0.3392  8.0408  0.0000  0.0000  0.0000  7.7362
  0.0000  0.0000  0.0000  0.0000  0.0000  0.0000  0.2623  0.0881  0.1315  0.0000
  0.0000  0.0000  0.0000  0.0000  0.0000  0.0000 -0.0881 -0.0271 -0.0896  0.0000
  0.0000  0.0000  0.0000  0.0000  0.0000  0.0000 -0.1315 -0.0896 -0.1008  0.0000
  7.6548  0.5919  7.5194  0.8835  0.2634  7.7362  0.0000  0.0000  0.0000  7.4087
  8.3202 -0.5984  8.1010  1.1212 -0.3424  8.5597  0.0000  0.0000  0.0000  7.9182
  0.5984  0.1981  0.3928  0.1638  0.0726  0.6694  0.0000  0.0000  0.0000  0.5145
  8.1010 -0.3928  7.7577  1.0466 -0.1395  8.3066  0.0000  0.0000  0.0000  7.7032
 -1.1212  0.1638 -1.0466 -0.0214  0.0720 -0.9436  0.0000  0.0000  0.0000 -0.9639
 -0.3424 -0.0726 -0.1395 -0.0720 -0.0339 -0.3366  0.0000  0.0000  0.0000 -0.2436
  8.5597 -0.6694  8.3066  0.9436 -0.3366  8.3956  0.0000  0.0000  0.0000  8.0295
  0.0000  0.0000  0.0000  0.0000  0.0000  0.0000  0.2856 -0.0829  0.1553  0.0000
  0.0000  0.0000  0.0000  0.0000  0.0000  0.0000  0.0829 -0.0100  0.0913  0.0000
  0.0000  0.0000  0.0000  0.0000  0.0000  0.0000 -0.1553  0.0913 -0.1323  0.0000
  7.9182 -0.5145  7.7032  0.9639 -0.2436  8.0295  0.0000  0.0000  0.0000  7.6507
 13.3355  0.0000 11.5281  0.0000  0.0000 11.5281  0.0000  0.0000  0.0000 11.5281
  0.0000  0.7173  0.0000  0.0000  0.0000  0.0000  0.0000  0.0000  0.0000  0.0000
 11.5281  0.0000 10.7783  0.0000  0.0000  9.4862  0.0000  0.0000  0.0000  9.4862
  0.0000  0.0000  0.0000  0.7173  0.0000  0.0000  0.0000  0.0000  0.0000  0.0000
  0.0000  0.0000  0.0000  0.0000  0.6461  0.0000  0.0000  0.0000  0.0000  0.0000
 11.5281  0.0000  9.4862  0.0000  0.0000 10.7783  0.0000  0.0000  0.0000  9.4862
  0.0000  0.0000  0.0000  0.0000  0.0000  0.0000  0.7173  0.0000  0.0000  0.0000
  0.0000  0.0000  0.0000  0.0000  0.0000  0.0000  0.0000  0.6461  0.0000  0.0000
  0.0000  0.0000  0.0000  0.0000  0.0000  0.0000  0.0000  0.0000  0.6461  0.0000
 11.5281  0.0000  9.4862  0.0000  0.0000  9.4862  0.0000  0.0000  0.0000 10.7783
  5.4791  0.7058  5.6735 -0.1513 -0.0662  5.3789  0.0000  0.0000 -0.0000  5.3647
  9.7334  1.3012  9.8800 -0.7122 -0.4306  9.3290  0.0000  0.0000 -0.0000  9.0933
  5.6905  0.5202  5.7265 -0.5662 -0.1786  5.7568  0.0000  0.0000 -0.0000  5.5624
 14.4487  5.4791  0.2671  5.4089  0.6706  0.1110  5.6435 -0.0000 -0.0000 -0.0000
  5.3647  5.6905 -0.1808  5.5822  0.7473 -0.0820  5.9011 -0.0000  0.0000 -0.0000
  5.5624  9.7334  0.1325  9.1014  1.4774  0.0909 10.1075 -0.0000 -0.0000 -0.0000
  9.0933  4.4015 14.4487
 CYCLE:     6 TIME:   0.004 TIME LEFT:  2.00D  GRAD.:     0.639 HEAT:  126.6029

     GRADIENT =  0.63943 IS LESS THAN CUTOFF =  1.00000


 
 PARAMETER VALUES USED IN THE CALCULATION
 
  NI    TYPE        VALUE     UNIT
 
 
   1  USS     -11.24695800  EV        ONE-CENTER ENERGY FOR S
   1  ZS        1.26864100  AU        ORBITAL EXPONENT  FOR S
   1  BETAS    -8.35298400  EV        BETA PARAMETER    FOR S
   1  GSS      14.44868600  EV        ONE-CENTER INTEGRAL (SS,SS)
   1  PO1       0.94165599  BOHR      KLOPMAN-OHNO TERM, SS, L=0
   1  PO7       0.94165599  BOHR      KLOPMAN-OHNO TERM, PP, L=0
   1  PO9       0.94165599  BOHR      KLOPMAN-OHNO TERM, CORE
   1  CORE      1.00000000  E         CORE CHARGE
   1  EHEAT    52.10200000  KCAL/MOL  HEAT OF FORMATION OF THE ATOM (EXP)
   1  EISOL   -11.24695800  EV        TOTAL ENERGY OF THE ATOM (CALC)
   1  FN11      0.02418400  CORE-CORE VDW MULTIPLIER 1
   1  FN21      3.05595300  CORE-CORE VDW EXPONENT 1
   1  FN31      1.78601100  CORE-CORE VDW POSITION 1
   1 ALPB_ 1   3.54094200  ALPB factor
   1 XFAC_ 1   2.24358700  XFAC factor
   1 ALPB_ 6   1.02780600  ALPB factor
   1 XFAC_ 6   0.21650600  XFAC factor
 
   6  USS     -51.08965300  EV        ONE-CENTER ENERGY FOR S
   6  UPP     -39.93792000  EV        ONE-CENTER ENERGY FOR P
   6  ZS        2.04755800  AU        ORBITAL EXPONENT  FOR S
   6  ZP        1.70284100  AU        ORBITAL EXPONENT  FOR P
   6  BETAS   -15.38523600  EV        BETA PARAMETER    FOR S
   6  BETAP    -7.47192900  EV        BETA PARAMETER    FOR P
   6  GSS      13.33551900  EV        ONE-CENTER INTEGRAL (SS,SS)
   6  GPP      10.77832600  EV        ONE-CENTER INTEGRAL (PP,PP)
   6  GSP      11.52813400  EV        ONE-CENTER INTEGRAL (SS,PP)
   6  GP2       9.48621200  EV        ONE-CENTER INTEGRAL (PP*,PP*)
   6  HSP       0.71732200  EV        ONE-CENTER INTEGRAL (SP,SP)
   6  DD2       0.75356425  BOHR      CHARGE SEPARATION, SP, L=1
   6  DD3       1.01715357  BOHR      CHARGE SEPARATION, PP, L=2
   6   =        0.71923619  BOHR      USING ORIGINAL MNDO PAPER FORMULA
   6  PO1       1.02025963  BOHR      KLOPMAN-OHNO TERM, SS, L=0
   6  PO2       1.29184422  BOHR      KLOPMAN-OHNO TERM, SP, L=1
   6  PO3       0.76267645  BOHR      KLOPMAN-OHNO TERM, PP, L=2
   6  PO7       1.02025963  BOHR      KLOPMAN-OHNO TERM, PP, L=0
   6  PO9       1.02025963  BOHR      KLOPMAN-OHNO TERM, CORE
   6  CORE      4.00000000  E         CORE CHARGE
   6  EHEAT   170.89000000  KCAL/MOL  HEAT OF FORMATION OF THE ATOM (EXP)
   6  EISOL  -115.20158000  EV        TOTAL ENERGY OF THE ATOM (CALC)
   6  FN11      0.04630200  CORE-CORE VDW MULTIPLIER 1
   6  FN21      2.10020600  CORE-CORE VDW EXPONENT 1
   6  FN31      1.33395900  CORE-CORE VDW POSITION 1
   6 ALPB_ 1   1.02780600  ALPB factor
   6 XFAC_ 1   0.21650600  XFAC factor
   6 ALPB_ 6   2.61371300  ALPB factor
   6 XFAC_ 6   0.81351000  XFAC factor


          ONE-ELECTRON MATRIX FROM HCORE


               S  C  1   PX  C  1   PY  C  1   PZ  C  1    S  C  2   PX  C  2
 ------------------------------------------------------------------------------
  S  C    1-126.158897
 PX  C    1  -8.592328-116.333343
 PY  C    1  -4.586118  -1.483215-114.346122
 PZ  C    1   0.000000  -0.000000   0.000000-111.906038
  S  C    2  -3.595354  -4.067534   0.000000   0.000000-131.849700
 PX  C    2   4.067534   2.475742   0.000000   0.000000   6.168420-121.534099
 PY  C    2   0.000000   0.000000  -1.524922   0.000000  -4.519877   1.882109
 PZ  C    2   0.000000   0.000000   0.000000  -1.524922  -0.000000  -0.000000
  S  C    3  -3.595354  -2.263828  -3.379337   0.000000  -4.186547   2.117732
 PX  C    3   2.263828  -0.285679   1.849884   0.000000  -2.117732  -0.829947
 PY  C    3   3.379337   1.849884   1.236499   0.000000   3.967680  -1.766563
 PZ  C    3   0.000000   0.000000   0.000000  -1.524922   0.000000   0.000000
  S  H    4  -0.481898  -0.613716   0.131555  -0.000000  -5.294893  -3.363465
  S  H    5  -0.481898  -0.232273  -0.583098   0.000000  -0.596947   0.177131


              PY  C  2   PZ  C  2    S  C  3   PX  C  3   PY  C  3   PZ  C  3
 ------------------------------------------------------------------------------
 PY  C    2-120.026224
 PZ  C    2   0.000000-116.885900
  S  C    3  -3.967680   0.000000-131.849700
 PX  C    3  -1.766563   0.000000  -0.322049-118.752749
 PY  C    3   1.536905   0.000000   7.640352   0.018874-122.807574
 PZ  C    3   0.000000  -1.772842   0.000000  -0.000000   0.000000-116.885900
  S  H    4   1.841019  -0.000000  -0.596947  -0.509576   0.554570  -0.000000
  S  H    5  -0.732011   0.000000  -5.294893  -0.342439  -3.819029   0.000000


               S  H  4    S  H  5
 ------------------------------
  S  H    4 -99.260534
  S  H    5  -0.128837 -99.260534


          TWO-ELECTRON MATRIX IN HCORE

 13.3355  0.0000 11.5281  0.0000  0.0000 11.5281  0.0000  0.0000  0.0000 11.5281
  0.0000  0.7173  0.0000  0.0000  0.0000  0.0000  0.0000  0.0000  0.0000  0.0000
 11.5281  0.0000 10.7783  0.0000  0.0000  9.4862  0.0000  0.0000  0.0000  9.4862
  0.0000  0.0000  0.0000  0.7173  0.0000  0.0000  0.0000  0.0000  0.0000  0.0000
  0.0000  0.0000  0.0000  0.0000  0.6461  0.0000  0.0000  0.0000  0.0000  0.0000
 11.5281  0.0000  9.4862  0.0000  0.0000 10.7783  0.0000  0.0000  0.0000  9.4862
  0.0000  0.0000  0.0000  0.0000  0.0000  0.0000  0.7173  0.0000  0.0000  0.0000
  0.0000  0.0000  0.0000  0.0000  0.0000  0.0000  0.0000  0.6461  0.0000  0.0000
  0.0000  0.0000  0.0000  0.0000  0.0000  0.0000  0.0000  0.0000  0.6461  0.0000
 11.5281  0.0000  9.4862  0.0000  0.0000  9.4862  0.0000  0.0000  0.0000 10.7783
  8.0139  1.2238  8.4325  0.0000  0.0000  7.6548  0.0000  0.0000  0.0000  7.6548
 -1.2238 -0.1292 -1.1597  0.0000  0.0000 -1.0634  0.0000  0.0000  0.0000 -1.0634
  8.4325  1.1597  8.5719  0.0000  0.0000  7.9126  0.0000  0.0000  0.0000  7.9126
  0.0000  0.0000  0.0000  0.2623  0.1583  0.0000  0.0000  0.0000  0.0000  0.0000
  0.0000  0.0000  0.0000 -0.1583 -0.1608  0.0000  0.0000  0.0000  0.0000  0.0000
  7.6548  1.0634  7.9126  0.0000  0.0000  7.4087  0.0000  0.0000  0.0000  7.3429
  0.0000  0.0000  0.0000  0.0000  0.0000  0.0000  0.2623  0.1583  0.0000  0.0000
  0.0000  0.0000  0.0000  0.0000  0.0000  0.0000 -0.1583 -0.1608  0.0000  0.0000
  0.0000  0.0000  0.0000  0.0000  0.0000  0.0000  0.0000  0.0000  0.0329  0.0000
  7.6548  1.0634  7.9126  0.0000  0.0000  7.3429  0.0000  0.0000  0.0000  7.4087
 13.3355  0.0000 11.5281  0.0000  0.0000 11.5281  0.0000  0.0000  0.0000 11.5281
  0.0000  0.7173  0.0000  0.0000  0.0000  0.0000  0.0000  0.0000  0.0000  0.0000
 11.5281  0.0000 10.7783  0.0000  0.0000  9.4862  0.0000  0.0000  0.0000  9.4862
  0.0000  0.0000  0.0000  0.7173  0.0000  0.0000  0.0000  0.0000  0.0000  0.0000
  0.0000  0.0000  0.0000  0.0000  0.6461  0.0000  0.0000  0.0000  0.0000  0.0000
 11.5281  0.0000  9.4862  0.0000  0.0000 10.7783  0.0000  0.0000  0.0000  9.4862
  0.0000  0.0000  0.0000  0.0000  0.0000  0.0000  0.7173  0.0000  0.0000  0.0000
  0.0000  0.0000  0.0000  0.0000  0.0000  0.0000  0.0000  0.6461  0.0000  0.0000
  0.0000  0.0000  0.0000  0.0000  0.0000  0.0000  0.0000  0.0000  0.6461  0.0000
 11.5281  0.0000  9.4862  0.0000  0.0000  9.4862  0.0000  0.0000  0.0000 10.7783
  8.0139  0.6811  7.8957  1.0167  0.3596  8.1916  0.0000  0.0000  0.0000  7.6548
 -0.6811  0.1410 -0.4869 -0.1810  0.0253 -0.7504  0.0000  0.0000  0.0000 -0.5919
  7.8957  0.4869  7.5982  0.9897  0.1987  8.0834  0.0000  0.0000  0.0000  7.5194
 -1.0167 -0.1810 -0.9897 -0.0079 -0.0705 -0.8572  0.0000  0.0000  0.0000 -0.8835
  0.3596 -0.0253  0.1987  0.0705  0.0099  0.3392  0.0000  0.0000  0.0000  0.2634
  8.1916  0.7504  8.0834  0.8572  0.3392  8.0408  0.0000  0.0000  0.0000  7.7362
  0.0000  0.0000  0.0000  0.0000  0.0000  0.0000  0.2623  0.0881  0.1315  0.0000
  0.0000  0.0000  0.0000  0.0000  0.0000  0.0000 -0.0881 -0.0271 -0.0896  0.0000
  0.0000  0.0000  0.0000  0.0000  0.0000  0.0000 -0.1315 -0.0896 -0.1008  0.0000
  7.6548  0.5919  7.5194  0.8835  0.2634  7.7362  0.0000  0.0000  0.0000  7.4087
  8.3202 -0.5984  8.1010  1.1212 -0.3424  8.5597  0.0000  0.0000  0.0000  7.9182
  0.5984  0.1981  0.3928  0.1638  0.0726  0.6694  0.0000  0.0000  0.0000  0.5145
  8.1010 -0.3928  7.7577  1.0466 -0.1395  8.3066  0.0000  0.0000  0.0000  7.7032
 -1.1212  0.1638 -1.0466 -0.0214  0.0720 -0.9436  0.0000  0.0000  0.0000 -0.9639
 -0.3424 -0.0726 -0.1395 -0.0720 -0.0339 -0.3366  0.0000  0.0000  0.0000 -0.2436
  8.5597 -0.6694  8.3066  0.9436 -0.3366  8.3956  0.0000  0.0000  0.0000  8.0295
  0.0000  0.0000  0.0000  0.0000  0.0000  0.0000  0.2856 -0.0829  0.1553  0.0000
  0.0000  0.0000  0.0000  0.0000  0.0000  0.0000  0.0829 -0.0100  0.0913  0.0000
  0.0000  0.0000  0.0000  0.0000  0.0000  0.0000 -0.1553  0.0913 -0.1323  0.0000
  7.9182 -0.5145  7.7032  0.9639 -0.2436  8.0295  0.0000  0.0000  0.0000  7.6507
 13.3355  0.0000 11.5281  0.0000  0.0000 11.5281  0.0000  0.0000  0.0000 11.5281
  0.0000  0.7173  0.0000  0.0000  0.0000  0.0000  0.0000  0.0000  0.0000  0.0000
 11.5281  0.0000 10.7783  0.0000  0.0000  9.4862  0.0000  0.0000  0.0000  9.4862
  0.0000  0.0000  0.0000  0.7173  0.0000  0.0000  0.0000  0.0000  0.0000  0.0000
  0.0000  0.0000  0.0000  0.0000  0.6461  0.0000  0.0000  0.0000  0.0000  0.0000
 11.5281  0.0000  9.4862  0.0000  0.0000 10.7783  0.0000  0.0000  0.0000  9.4862
  0.0000  0.0000  0.0000  0.0000  0.0000  0.0000  0.7173  0.0000  0.0000  0.0000
  0.0000  0.0000  0.0000  0.0000  0.0000  0.0000  0.0000  0.6461  0.0000  0.0000
  0.0000  0.0000  0.0000  0.0000  0.0000  0.0000  0.0000  0.0000  0.6461  0.0000
 11.5281  0.0000  9.4862  0.0000  0.0000  9.4862  0.0000  0.0000  0.0000 10.7783
  5.4791  0.7058  5.6735 -0.1513 -0.0662  5.3789  0.0000  0.0000 -0.0000  5.3647
  9.7334  1.3012  9.8800 -0.7122 -0.4306  9.3290  0.0000  0.0000 -0.0000  9.0933
  5.6905  0.5202  5.7265 -0.5662 -0.1786  5.7568  0.0000  0.0000 -0.0000  5.5624
 14.4487  5.4791  0.2671  5.4089  0.6706  0.1110  5.6435 -0.0000 -0.0000 -0.0000
  5.3647  5.6905 -0.1808  5.5822  0.7473 -0.0820  5.9011 -0.0000  0.0000 -0.0000
  5.5624  9.7334  0.1325  9.1014  1.4774  0.0909 10.1075 -0.0000 -0.0000 -0.0000
  9.0933  4.4015 14.4487

 -------------------------------------------------------------------------------
 scfcrt=1.D-21 aux(precision=14) PM6 external=/home/brent/programs/pbqff/tests/sic/mopac/100/params.dat hcore SYMMETRY
 Comment line 1
 Comment line 2


     GEOMETRY OPTIMISED USING EIGENVECTOR FOLLOWING (EF).     
     SCF FIELD WAS ACHIEVED                                   


                              PM6 CALCULATION
                                                       MOPAC2016 (Version: 22.047L)
                                                       Fri Feb 25 13:43:36 2022




          FINAL HEAT OF FORMATION =        126.60293 KCAL/MOL =     529.70666 KJ/MOL


          COSMO AREA              =         79.87 SQUARE ANGSTROMS
          COSMO VOLUME            =         63.37 CUBIC ANGSTROMS

          GRADIENT NORM           =          0.63943          =       0.28596 PER ATOM
          IONIZATION POTENTIAL    =         10.262839 EV
          HOMO LUMO ENERGIES (EV) =        -10.263 -0.229
          NO. OF FILLED LEVELS    =          7
          MOLECULAR WEIGHT        =         38.0488         POINT GROUP:  C2v 

          MOLECULAR DIMENSIONS (Angstroms)

            Atom       Atom       Distance
            H     5    H     4     3.11604
            H     4    C     1     1.84434
            C     3    C     2     0.00000


          SCF CALCULATIONS        =          9
 
          WALL-CLOCK TIME         =          0.039 SECONDS
          COMPUTATION TIME        =          0.021 SECONDS




  ATOM    CHEMICAL      BOND LENGTH      BOND ANGLE     TWIST ANGLE 
 NUMBER    SYMBOL       (ANGSTROMS)      (DEGREES)       (DEGREES) 
   (I)                     NA:I           NB:NA:I       NC:NB:NA:I       NA    NB    NC 
     1       C          0.00000000       0.0000000       0.0000000        0     0     0
     2       C          1.43619964  *    0.0000000       0.0000000        1     0     0
     3       C          1.43619964      56.1817522  *    0.0000000        1     2     0
     4       H          1.05394263  *  151.3055564  *  180.0000000        2     1     3
     5       H          1.05394263     151.3055564     180.0000000        3     1     2

                             CARTESIAN COORDINATES

   1    C        0.000000000     0.000000000     0.000000000
   2    C        1.436199644     0.000000000     0.000000000
   3    C        0.799331622     1.193205085     0.000000000
   4    H        2.360710454    -0.506038360     0.000000000
   5    H        0.893457242     2.242936206    -0.000000000


           Empirical Formula: C3 H2  =     5 atoms



      MOLECULAR POINT GROUP   :   C2v 


                  EIGENVALUES  
 -30.61190 -20.62504 -19.26540 -14.69607 -12.76589 -12.03785 -10.26284  -0.22867
   0.99342   3.02397   4.43574   4.72264   5.26707   5.56542


              NET ATOMIC CHARGES AND DIPOLE CONTRIBUTIONS

  ATOM NO.   TYPE          CHARGE      No. of ELECS.   s-Pop       p-Pop       
    1          C           0.153186        3.8468     1.63778     2.20904
    2          C          -0.273159        4.2732     1.15638     3.11678
    3          C          -0.273159        4.2732     1.15638     3.11678
    4          H           0.196566        0.8034     0.80343
    5          H           0.196566        0.8034     0.80343
 DIPOLE           X         Y         Z       TOTAL
 POINT-CHG.     0.139     0.074     0.000     0.158
 HYBRID         2.105     1.124    -0.000     2.387
 SUM            2.245     1.198    -0.000     2.545


          ATOMIC ORBITAL ELECTRON POPULATIONS

     Atom    s        px        py        pz   
    1  C   1.63778   1.01751   0.86345   0.32807
    2  C   1.15638   1.15859   1.12223   0.83596
    3  C   1.15638   1.22903   1.05179   0.83596
    4  H   0.80343
    5  H   0.80343

 **********************
 *                    *
 * JOB ENDED NORMALLY *
 *                    *
 **********************



 TOTAL JOB TIME:             0.04 SECONDS

 == MOPAC DONE ==
